M 0.00000 0 (250.00, 250.00, 0.00), (770.00, 635.00), 250.00
s 0.100000000 _0_ AGT  --- 0 cbr 500 [0 0 0 0] ------- [0:0 9:0 32 0] [0] 0 0
r 0.100000000 _0_ RTR  --- 0 cbr 500 [0 0 0 0] ------- [0:0 9:0 32 0] [0] 0 0
s 0.100000000 _0_ RTR  --- 0 AODV 48 [0 0 0 0] ------- [0:255 -1:255 30 0] [0x2 1 1 [9 0] [0 4]] (REQUEST)
r 0.101408084 _1_ RTR  --- 0 AODV 48 [0 ffffffff 0 800] ------- [0:255 -1:255 30 0] [0x2 1 1 [9 0] [0 4]] (REQUEST)
r 0.101408084 _2_ RTR  --- 0 AODV 48 [0 ffffffff 0 800] ------- [0:255 -1:255 30 0] [0x2 1 1 [9 0] [0 4]] (REQUEST)
r 0.101408084 _3_ RTR  --- 0 AODV 48 [0 ffffffff 0 800] ------- [0:255 -1:255 30 0] [0x2 1 1 [9 0] [0 4]] (REQUEST)
r 0.101408084 _4_ RTR  --- 0 AODV 48 [0 ffffffff 0 800] ------- [0:255 -1:255 30 0] [0x2 1 1 [9 0] [0 4]] (REQUEST)
s 0.101550130 _1_ RTR  --- 0 AODV 48 [0 ffffffff 0 800] ------- [1:255 -1:255 29 0] [0x2 2 1 [9 0] [0 4]] (REQUEST)
s 0.102289310 _2_ RTR  --- 0 AODV 48 [0 ffffffff 0 800] ------- [2:255 -1:255 29 0] [0x2 2 1 [9 0] [0 4]] (REQUEST)
r 0.102658130 _2_ RTR  --- 0 AODV 48 [0 ffffffff 1 800] ------- [1:255 -1:255 29 0] [0x2 2 1 [9 0] [0 4]] (REQUEST)
r 0.102658130 _3_ RTR  --- 0 AODV 48 [0 ffffffff 1 800] ------- [1:255 -1:255 29 0] [0x2 2 1 [9 0] [0 4]] (REQUEST)
r 0.102658130 _4_ RTR  --- 0 AODV 48 [0 ffffffff 1 800] ------- [1:255 -1:255 29 0] [0x2 2 1 [9 0] [0 4]] (REQUEST)
r 0.102658215 _0_ RTR  --- 0 AODV 48 [0 ffffffff 1 800] ------- [1:255 -1:255 29 0] [0x2 2 1 [9 0] [0 4]] (REQUEST)
r 0.103756130 _1_ RTR  --- 0 AODV 48 [0 ffffffff 2 800] ------- [2:255 -1:255 29 0] [0x2 2 1 [9 0] [0 4]] (REQUEST)
r 0.103756130 _3_ RTR  --- 0 AODV 48 [0 ffffffff 2 800] ------- [2:255 -1:255 29 0] [0x2 2 1 [9 0] [0 4]] (REQUEST)
r 0.103756130 _4_ RTR  --- 0 AODV 48 [0 ffffffff 2 800] ------- [2:255 -1:255 29 0] [0x2 2 1 [9 0] [0 4]] (REQUEST)
r 0.103756216 _0_ RTR  --- 0 AODV 48 [0 ffffffff 2 800] ------- [2:255 -1:255 29 0] [0x2 2 1 [9 0] [0 4]] (REQUEST)
s 0.105819818 _3_ RTR  --- 0 AODV 48 [0 ffffffff 0 800] ------- [3:255 -1:255 29 0] [0x2 2 1 [9 0] [0 4]] (REQUEST)
r 0.107027818 _2_ RTR  --- 0 AODV 48 [0 ffffffff 3 800] ------- [3:255 -1:255 29 0] [0x2 2 1 [9 0] [0 4]] (REQUEST)
r 0.107027818 _1_ RTR  --- 0 AODV 48 [0 ffffffff 3 800] ------- [3:255 -1:255 29 0] [0x2 2 1 [9 0] [0 4]] (REQUEST)
r 0.107027818 _4_ RTR  --- 0 AODV 48 [0 ffffffff 3 800] ------- [3:255 -1:255 29 0] [0x2 2 1 [9 0] [0 4]] (REQUEST)
r 0.107027906 _0_ RTR  --- 0 AODV 48 [0 ffffffff 3 800] ------- [3:255 -1:255 29 0] [0x2 2 1 [9 0] [0 4]] (REQUEST)
s 0.108928571 _0_ AGT  --- 1 cbr 500 [0 0 0 0] ------- [0:0 9:0 32 0] [1] 0 0
r 0.108928571 _0_ RTR  --- 1 cbr 500 [0 0 0 0] ------- [0:0 9:0 32 0] [1] 0 0
s 0.109399638 _4_ RTR  --- 0 AODV 48 [0 ffffffff 0 800] ------- [4:255 -1:255 29 0] [0x2 2 1 [9 0] [0 4]] (REQUEST)
r 0.110387638 _3_ RTR  --- 0 AODV 48 [0 ffffffff 4 800] ------- [4:255 -1:255 29 0] [0x2 2 1 [9 0] [0 4]] (REQUEST)
r 0.110387638 _2_ RTR  --- 0 AODV 48 [0 ffffffff 4 800] ------- [4:255 -1:255 29 0] [0x2 2 1 [9 0] [0 4]] (REQUEST)
r 0.110387638 _1_ RTR  --- 0 AODV 48 [0 ffffffff 4 800] ------- [4:255 -1:255 29 0] [0x2 2 1 [9 0] [0 4]] (REQUEST)
r 0.110387730 _0_ RTR  --- 0 AODV 48 [0 ffffffff 4 800] ------- [4:255 -1:255 29 0] [0x2 2 1 [9 0] [0 4]] (REQUEST)
s 0.117857143 _0_ AGT  --- 2 cbr 500 [0 0 0 0] ------- [0:0 9:0 32 0] [2] 0 0
r 0.117857143 _0_ RTR  --- 2 cbr 500 [0 0 0 0] ------- [0:0 9:0 32 0] [2] 0 0
s 0.126785714 _0_ AGT  --- 3 cbr 500 [0 0 0 0] ------- [0:0 9:0 32 0] [3] 0 0
r 0.126785714 _0_ RTR  --- 3 cbr 500 [0 0 0 0] ------- [0:0 9:0 32 0] [3] 0 0
s 0.135714286 _0_ AGT  --- 4 cbr 500 [0 0 0 0] ------- [0:0 9:0 32 0] [4] 0 0
r 0.135714286 _0_ RTR  --- 4 cbr 500 [0 0 0 0] ------- [0:0 9:0 32 0] [4] 0 0
s 0.144642857 _0_ AGT  --- 5 cbr 500 [0 0 0 0] ------- [0:0 9:0 32 0] [5] 0 0
r 0.144642857 _0_ RTR  --- 5 cbr 500 [0 0 0 0] ------- [0:0 9:0 32 0] [5] 0 0
s 0.153571429 _0_ AGT  --- 6 cbr 500 [0 0 0 0] ------- [0:0 9:0 32 0] [6] 0 0
r 0.153571429 _0_ RTR  --- 6 cbr 500 [0 0 0 0] ------- [0:0 9:0 32 0] [6] 0 0
s 0.162500000 _0_ AGT  --- 7 cbr 500 [0 0 0 0] ------- [0:0 9:0 32 0] [7] 0 0
r 0.162500000 _0_ RTR  --- 7 cbr 500 [0 0 0 0] ------- [0:0 9:0 32 0] [7] 0 0
s 0.171428571 _0_ AGT  --- 8 cbr 500 [0 0 0 0] ------- [0:0 9:0 32 0] [8] 0 0
r 0.171428571 _0_ RTR  --- 8 cbr 500 [0 0 0 0] ------- [0:0 9:0 32 0] [8] 0 0
s 0.180357143 _0_ AGT  --- 9 cbr 500 [0 0 0 0] ------- [0:0 9:0 32 0] [9] 0 0
r 0.180357143 _0_ RTR  --- 9 cbr 500 [0 0 0 0] ------- [0:0 9:0 32 0] [9] 0 0
s 0.189285714 _0_ AGT  --- 10 cbr 500 [0 0 0 0] ------- [0:0 9:0 32 0] [10] 0 0
r 0.189285714 _0_ RTR  --- 10 cbr 500 [0 0 0 0] ------- [0:0 9:0 32 0] [10] 0 0
s 0.198214286 _0_ AGT  --- 11 cbr 500 [0 0 0 0] ------- [0:0 9:0 32 0] [11] 0 0
r 0.198214286 _0_ RTR  --- 11 cbr 500 [0 0 0 0] ------- [0:0 9:0 32 0] [11] 0 0
s 0.207142857 _0_ AGT  --- 12 cbr 500 [0 0 0 0] ------- [0:0 9:0 32 0] [12] 0 0
r 0.207142857 _0_ RTR  --- 12 cbr 500 [0 0 0 0] ------- [0:0 9:0 32 0] [12] 0 0
s 0.216071429 _0_ AGT  --- 13 cbr 500 [0 0 0 0] ------- [0:0 9:0 32 0] [13] 0 0
r 0.216071429 _0_ RTR  --- 13 cbr 500 [0 0 0 0] ------- [0:0 9:0 32 0] [13] 0 0
s 0.225000000 _0_ AGT  --- 14 cbr 500 [0 0 0 0] ------- [0:0 9:0 32 0] [14] 0 0
r 0.225000000 _0_ RTR  --- 14 cbr 500 [0 0 0 0] ------- [0:0 9:0 32 0] [14] 0 0
s 0.233928571 _0_ AGT  --- 15 cbr 500 [0 0 0 0] ------- [0:0 9:0 32 0] [15] 0 0
r 0.233928571 _0_ RTR  --- 15 cbr 500 [0 0 0 0] ------- [0:0 9:0 32 0] [15] 0 0
s 0.242857143 _0_ AGT  --- 16 cbr 500 [0 0 0 0] ------- [0:0 9:0 32 0] [16] 0 0
r 0.242857143 _0_ RTR  --- 16 cbr 500 [0 0 0 0] ------- [0:0 9:0 32 0] [16] 0 0
s 0.251785714 _0_ AGT  --- 17 cbr 500 [0 0 0 0] ------- [0:0 9:0 32 0] [17] 0 0
r 0.251785714 _0_ RTR  --- 17 cbr 500 [0 0 0 0] ------- [0:0 9:0 32 0] [17] 0 0
s 0.260714286 _0_ AGT  --- 18 cbr 500 [0 0 0 0] ------- [0:0 9:0 32 0] [18] 0 0
r 0.260714286 _0_ RTR  --- 18 cbr 500 [0 0 0 0] ------- [0:0 9:0 32 0] [18] 0 0
s 0.269642857 _0_ AGT  --- 19 cbr 500 [0 0 0 0] ------- [0:0 9:0 32 0] [19] 0 0
r 0.269642857 _0_ RTR  --- 19 cbr 500 [0 0 0 0] ------- [0:0 9:0 32 0] [19] 0 0
s 0.278571429 _0_ AGT  --- 20 cbr 500 [0 0 0 0] ------- [0:0 9:0 32 0] [20] 0 0
r 0.278571429 _0_ RTR  --- 20 cbr 500 [0 0 0 0] ------- [0:0 9:0 32 0] [20] 0 0
s 0.287500000 _0_ AGT  --- 21 cbr 500 [0 0 0 0] ------- [0:0 9:0 32 0] [21] 0 0
r 0.287500000 _0_ RTR  --- 21 cbr 500 [0 0 0 0] ------- [0:0 9:0 32 0] [21] 0 0
s 0.296428571 _0_ AGT  --- 22 cbr 500 [0 0 0 0] ------- [0:0 9:0 32 0] [22] 0 0
r 0.296428571 _0_ RTR  --- 22 cbr 500 [0 0 0 0] ------- [0:0 9:0 32 0] [22] 0 0
s 0.305357143 _0_ AGT  --- 23 cbr 500 [0 0 0 0] ------- [0:0 9:0 32 0] [23] 0 0
r 0.305357143 _0_ RTR  --- 23 cbr 500 [0 0 0 0] ------- [0:0 9:0 32 0] [23] 0 0
s 0.314285714 _0_ AGT  --- 24 cbr 500 [0 0 0 0] ------- [0:0 9:0 32 0] [24] 0 0
r 0.314285714 _0_ RTR  --- 24 cbr 500 [0 0 0 0] ------- [0:0 9:0 32 0] [24] 0 0
s 0.323214286 _0_ AGT  --- 25 cbr 500 [0 0 0 0] ------- [0:0 9:0 32 0] [25] 0 0
r 0.323214286 _0_ RTR  --- 25 cbr 500 [0 0 0 0] ------- [0:0 9:0 32 0] [25] 0 0
s 0.332142857 _0_ AGT  --- 26 cbr 500 [0 0 0 0] ------- [0:0 9:0 32 0] [26] 0 0
r 0.332142857 _0_ RTR  --- 26 cbr 500 [0 0 0 0] ------- [0:0 9:0 32 0] [26] 0 0
s 0.341071429 _0_ AGT  --- 27 cbr 500 [0 0 0 0] ------- [0:0 9:0 32 0] [27] 0 0
r 0.341071429 _0_ RTR  --- 27 cbr 500 [0 0 0 0] ------- [0:0 9:0 32 0] [27] 0 0
s 0.350000000 _0_ AGT  --- 28 cbr 500 [0 0 0 0] ------- [0:0 9:0 32 0] [28] 0 0
r 0.350000000 _0_ RTR  --- 28 cbr 500 [0 0 0 0] ------- [0:0 9:0 32 0] [28] 0 0
s 0.358928571 _0_ AGT  --- 29 cbr 500 [0 0 0 0] ------- [0:0 9:0 32 0] [29] 0 0
r 0.358928571 _0_ RTR  --- 29 cbr 500 [0 0 0 0] ------- [0:0 9:0 32 0] [29] 0 0
s 0.367857143 _0_ AGT  --- 30 cbr 500 [0 0 0 0] ------- [0:0 9:0 32 0] [30] 0 0
r 0.367857143 _0_ RTR  --- 30 cbr 500 [0 0 0 0] ------- [0:0 9:0 32 0] [30] 0 0
s 0.376785714 _0_ AGT  --- 31 cbr 500 [0 0 0 0] ------- [0:0 9:0 32 0] [31] 0 0
r 0.376785714 _0_ RTR  --- 31 cbr 500 [0 0 0 0] ------- [0:0 9:0 32 0] [31] 0 0
s 0.385714286 _0_ AGT  --- 32 cbr 500 [0 0 0 0] ------- [0:0 9:0 32 0] [32] 0 0
r 0.385714286 _0_ RTR  --- 32 cbr 500 [0 0 0 0] ------- [0:0 9:0 32 0] [32] 0 0
s 0.394642857 _0_ AGT  --- 33 cbr 500 [0 0 0 0] ------- [0:0 9:0 32 0] [33] 0 0
r 0.394642857 _0_ RTR  --- 33 cbr 500 [0 0 0 0] ------- [0:0 9:0 32 0] [33] 0 0
s 0.403571429 _0_ AGT  --- 34 cbr 500 [0 0 0 0] ------- [0:0 9:0 32 0] [34] 0 0
r 0.403571429 _0_ RTR  --- 34 cbr 500 [0 0 0 0] ------- [0:0 9:0 32 0] [34] 0 0
s 0.412500000 _0_ AGT  --- 35 cbr 500 [0 0 0 0] ------- [0:0 9:0 32 0] [35] 0 0
r 0.412500000 _0_ RTR  --- 35 cbr 500 [0 0 0 0] ------- [0:0 9:0 32 0] [35] 0 0
s 0.421428571 _0_ AGT  --- 36 cbr 500 [0 0 0 0] ------- [0:0 9:0 32 0] [36] 0 0
r 0.421428571 _0_ RTR  --- 36 cbr 500 [0 0 0 0] ------- [0:0 9:0 32 0] [36] 0 0
s 0.430357143 _0_ AGT  --- 37 cbr 500 [0 0 0 0] ------- [0:0 9:0 32 0] [37] 0 0
r 0.430357143 _0_ RTR  --- 37 cbr 500 [0 0 0 0] ------- [0:0 9:0 32 0] [37] 0 0
s 0.439285714 _0_ AGT  --- 38 cbr 500 [0 0 0 0] ------- [0:0 9:0 32 0] [38] 0 0
r 0.439285714 _0_ RTR  --- 38 cbr 500 [0 0 0 0] ------- [0:0 9:0 32 0] [38] 0 0
s 0.448214286 _0_ AGT  --- 39 cbr 500 [0 0 0 0] ------- [0:0 9:0 32 0] [39] 0 0
r 0.448214286 _0_ RTR  --- 39 cbr 500 [0 0 0 0] ------- [0:0 9:0 32 0] [39] 0 0
s 0.457142857 _0_ AGT  --- 40 cbr 500 [0 0 0 0] ------- [0:0 9:0 32 0] [40] 0 0
r 0.457142857 _0_ RTR  --- 40 cbr 500 [0 0 0 0] ------- [0:0 9:0 32 0] [40] 0 0
s 0.466071429 _0_ AGT  --- 41 cbr 500 [0 0 0 0] ------- [0:0 9:0 32 0] [41] 0 0
r 0.466071429 _0_ RTR  --- 41 cbr 500 [0 0 0 0] ------- [0:0 9:0 32 0] [41] 0 0
s 0.475000000 _0_ AGT  --- 42 cbr 500 [0 0 0 0] ------- [0:0 9:0 32 0] [42] 0 0
r 0.475000000 _0_ RTR  --- 42 cbr 500 [0 0 0 0] ------- [0:0 9:0 32 0] [42] 0 0
s 0.483928571 _0_ AGT  --- 43 cbr 500 [0 0 0 0] ------- [0:0 9:0 32 0] [43] 0 0
r 0.483928571 _0_ RTR  --- 43 cbr 500 [0 0 0 0] ------- [0:0 9:0 32 0] [43] 0 0
s 0.492857143 _0_ AGT  --- 44 cbr 500 [0 0 0 0] ------- [0:0 9:0 32 0] [44] 0 0
r 0.492857143 _0_ RTR  --- 44 cbr 500 [0 0 0 0] ------- [0:0 9:0 32 0] [44] 0 0
M 0.50000 1 (250.00, 250.00, 0.00), (644.00, 599.00), 250.00
s 0.501785714 _0_ AGT  --- 45 cbr 500 [0 0 0 0] ------- [0:0 9:0 32 0] [45] 0 0
r 0.501785714 _0_ RTR  --- 45 cbr 500 [0 0 0 0] ------- [0:0 9:0 32 0] [45] 0 0
s 0.510714286 _0_ AGT  --- 46 cbr 500 [0 0 0 0] ------- [0:0 9:0 32 0] [46] 0 0
r 0.510714286 _0_ RTR  --- 46 cbr 500 [0 0 0 0] ------- [0:0 9:0 32 0] [46] 0 0
s 0.519642857 _0_ AGT  --- 47 cbr 500 [0 0 0 0] ------- [0:0 9:0 32 0] [47] 0 0
r 0.519642857 _0_ RTR  --- 47 cbr 500 [0 0 0 0] ------- [0:0 9:0 32 0] [47] 0 0
s 0.528571429 _0_ AGT  --- 48 cbr 500 [0 0 0 0] ------- [0:0 9:0 32 0] [48] 0 0
r 0.528571429 _0_ RTR  --- 48 cbr 500 [0 0 0 0] ------- [0:0 9:0 32 0] [48] 0 0
s 0.537500000 _0_ AGT  --- 49 cbr 500 [0 0 0 0] ------- [0:0 9:0 32 0] [49] 0 0
r 0.537500000 _0_ RTR  --- 49 cbr 500 [0 0 0 0] ------- [0:0 9:0 32 0] [49] 0 0
s 0.546428571 _0_ AGT  --- 50 cbr 500 [0 0 0 0] ------- [0:0 9:0 32 0] [50] 0 0
r 0.546428571 _0_ RTR  --- 50 cbr 500 [0 0 0 0] ------- [0:0 9:0 32 0] [50] 0 0
s 0.555357143 _0_ AGT  --- 51 cbr 500 [0 0 0 0] ------- [0:0 9:0 32 0] [51] 0 0
r 0.555357143 _0_ RTR  --- 51 cbr 500 [0 0 0 0] ------- [0:0 9:0 32 0] [51] 0 0
s 0.564285714 _0_ AGT  --- 52 cbr 500 [0 0 0 0] ------- [0:0 9:0 32 0] [52] 0 0
r 0.564285714 _0_ RTR  --- 52 cbr 500 [0 0 0 0] ------- [0:0 9:0 32 0] [52] 0 0
s 0.573214286 _0_ AGT  --- 53 cbr 500 [0 0 0 0] ------- [0:0 9:0 32 0] [53] 0 0
r 0.573214286 _0_ RTR  --- 53 cbr 500 [0 0 0 0] ------- [0:0 9:0 32 0] [53] 0 0
s 0.582142857 _0_ AGT  --- 54 cbr 500 [0 0 0 0] ------- [0:0 9:0 32 0] [54] 0 0
r 0.582142857 _0_ RTR  --- 54 cbr 500 [0 0 0 0] ------- [0:0 9:0 32 0] [54] 0 0
s 0.591071429 _0_ AGT  --- 55 cbr 500 [0 0 0 0] ------- [0:0 9:0 32 0] [55] 0 0
r 0.591071429 _0_ RTR  --- 55 cbr 500 [0 0 0 0] ------- [0:0 9:0 32 0] [55] 0 0
s 0.600000000 _0_ AGT  --- 56 cbr 500 [0 0 0 0] ------- [0:0 9:0 32 0] [56] 0 0
r 0.600000000 _0_ RTR  --- 56 cbr 500 [0 0 0 0] ------- [0:0 9:0 32 0] [56] 0 0
s 0.608928571 _0_ AGT  --- 57 cbr 500 [0 0 0 0] ------- [0:0 9:0 32 0] [57] 0 0
r 0.608928571 _0_ RTR  --- 57 cbr 500 [0 0 0 0] ------- [0:0 9:0 32 0] [57] 0 0
s 0.617857143 _0_ AGT  --- 58 cbr 500 [0 0 0 0] ------- [0:0 9:0 32 0] [58] 0 0
r 0.617857143 _0_ RTR  --- 58 cbr 500 [0 0 0 0] ------- [0:0 9:0 32 0] [58] 0 0
s 0.626785714 _0_ AGT  --- 59 cbr 500 [0 0 0 0] ------- [0:0 9:0 32 0] [59] 0 0
r 0.626785714 _0_ RTR  --- 59 cbr 500 [0 0 0 0] ------- [0:0 9:0 32 0] [59] 0 0
s 0.635714286 _0_ AGT  --- 60 cbr 500 [0 0 0 0] ------- [0:0 9:0 32 0] [60] 0 0
r 0.635714286 _0_ RTR  --- 60 cbr 500 [0 0 0 0] ------- [0:0 9:0 32 0] [60] 0 0
s 0.644642857 _0_ AGT  --- 61 cbr 500 [0 0 0 0] ------- [0:0 9:0 32 0] [61] 0 0
r 0.644642857 _0_ RTR  --- 61 cbr 500 [0 0 0 0] ------- [0:0 9:0 32 0] [61] 0 0
s 0.653571429 _0_ AGT  --- 62 cbr 500 [0 0 0 0] ------- [0:0 9:0 32 0] [62] 0 0
r 0.653571429 _0_ RTR  --- 62 cbr 500 [0 0 0 0] ------- [0:0 9:0 32 0] [62] 0 0
s 0.662500000 _0_ AGT  --- 63 cbr 500 [0 0 0 0] ------- [0:0 9:0 32 0] [63] 0 0
r 0.662500000 _0_ RTR  --- 63 cbr 500 [0 0 0 0] ------- [0:0 9:0 32 0] [63] 0 0
s 0.671428571 _0_ AGT  --- 64 cbr 500 [0 0 0 0] ------- [0:0 9:0 32 0] [64] 0 0
r 0.671428571 _0_ RTR  --- 64 cbr 500 [0 0 0 0] ------- [0:0 9:0 32 0] [64] 0 0
D 0.671428571 _0_ RTR  IFQ 0 cbr 520 [0 0 0 0] ------- [0:0 9:0 30 0] [0] 0 0
s 0.680357143 _0_ AGT  --- 65 cbr 500 [0 0 0 0] ------- [0:0 9:0 32 0] [65] 0 0
r 0.680357143 _0_ RTR  --- 65 cbr 500 [0 0 0 0] ------- [0:0 9:0 32 0] [65] 0 0
D 0.680357143 _0_ RTR  IFQ 1 cbr 520 [0 0 0 0] ------- [0:0 9:0 30 0] [1] 0 0
s 0.689285714 _0_ AGT  --- 66 cbr 500 [0 0 0 0] ------- [0:0 9:0 32 0] [66] 0 0
r 0.689285714 _0_ RTR  --- 66 cbr 500 [0 0 0 0] ------- [0:0 9:0 32 0] [66] 0 0
D 0.689285714 _0_ RTR  IFQ 2 cbr 520 [0 0 0 0] ------- [0:0 9:0 30 0] [2] 0 0
s 0.698214286 _0_ AGT  --- 67 cbr 500 [0 0 0 0] ------- [0:0 9:0 32 0] [67] 0 0
r 0.698214286 _0_ RTR  --- 67 cbr 500 [0 0 0 0] ------- [0:0 9:0 32 0] [67] 0 0
D 0.698214286 _0_ RTR  IFQ 3 cbr 520 [0 0 0 0] ------- [0:0 9:0 30 0] [3] 0 0
s 0.707142857 _0_ AGT  --- 68 cbr 500 [0 0 0 0] ------- [0:0 9:0 32 0] [68] 0 0
r 0.707142857 _0_ RTR  --- 68 cbr 500 [0 0 0 0] ------- [0:0 9:0 32 0] [68] 0 0
D 0.707142857 _0_ RTR  IFQ 4 cbr 520 [0 0 0 0] ------- [0:0 9:0 30 0] [4] 0 0
s 0.716071429 _0_ AGT  --- 69 cbr 500 [0 0 0 0] ------- [0:0 9:0 32 0] [69] 0 0
r 0.716071429 _0_ RTR  --- 69 cbr 500 [0 0 0 0] ------- [0:0 9:0 32 0] [69] 0 0
D 0.716071429 _0_ RTR  IFQ 5 cbr 520 [0 0 0 0] ------- [0:0 9:0 30 0] [5] 0 0
s 0.725000000 _0_ AGT  --- 70 cbr 500 [0 0 0 0] ------- [0:0 9:0 32 0] [70] 0 0
r 0.725000000 _0_ RTR  --- 70 cbr 500 [0 0 0 0] ------- [0:0 9:0 32 0] [70] 0 0
D 0.725000000 _0_ RTR  IFQ 6 cbr 520 [0 0 0 0] ------- [0:0 9:0 30 0] [6] 0 0
s 0.733928571 _0_ AGT  --- 71 cbr 500 [0 0 0 0] ------- [0:0 9:0 32 0] [71] 0 0
r 0.733928571 _0_ RTR  --- 71 cbr 500 [0 0 0 0] ------- [0:0 9:0 32 0] [71] 0 0
D 0.733928571 _0_ RTR  IFQ 7 cbr 520 [0 0 0 0] ------- [0:0 9:0 30 0] [7] 0 0
s 0.742857143 _0_ AGT  --- 72 cbr 500 [0 0 0 0] ------- [0:0 9:0 32 0] [72] 0 0
r 0.742857143 _0_ RTR  --- 72 cbr 500 [0 0 0 0] ------- [0:0 9:0 32 0] [72] 0 0
D 0.742857143 _0_ RTR  IFQ 8 cbr 520 [0 0 0 0] ------- [0:0 9:0 30 0] [8] 0 0
s 0.751785714 _0_ AGT  --- 73 cbr 500 [0 0 0 0] ------- [0:0 9:0 32 0] [73] 0 0
r 0.751785714 _0_ RTR  --- 73 cbr 500 [0 0 0 0] ------- [0:0 9:0 32 0] [73] 0 0
D 0.751785714 _0_ RTR  IFQ 9 cbr 520 [0 0 0 0] ------- [0:0 9:0 30 0] [9] 0 0
s 0.760714286 _0_ AGT  --- 74 cbr 500 [0 0 0 0] ------- [0:0 9:0 32 0] [74] 0 0
r 0.760714286 _0_ RTR  --- 74 cbr 500 [0 0 0 0] ------- [0:0 9:0 32 0] [74] 0 0
D 0.760714286 _0_ RTR  IFQ 10 cbr 520 [0 0 0 0] ------- [0:0 9:0 30 0] [10] 0 0
s 0.769642857 _0_ AGT  --- 75 cbr 500 [0 0 0 0] ------- [0:0 9:0 32 0] [75] 0 0
r 0.769642857 _0_ RTR  --- 75 cbr 500 [0 0 0 0] ------- [0:0 9:0 32 0] [75] 0 0
D 0.769642857 _0_ RTR  IFQ 11 cbr 520 [0 0 0 0] ------- [0:0 9:0 30 0] [11] 0 0
s 0.778571429 _0_ AGT  --- 76 cbr 500 [0 0 0 0] ------- [0:0 9:0 32 0] [76] 0 0
r 0.778571429 _0_ RTR  --- 76 cbr 500 [0 0 0 0] ------- [0:0 9:0 32 0] [76] 0 0
D 0.778571429 _0_ RTR  IFQ 12 cbr 520 [0 0 0 0] ------- [0:0 9:0 30 0] [12] 0 0
s 0.787500000 _0_ AGT  --- 77 cbr 500 [0 0 0 0] ------- [0:0 9:0 32 0] [77] 0 0
r 0.787500000 _0_ RTR  --- 77 cbr 500 [0 0 0 0] ------- [0:0 9:0 32 0] [77] 0 0
D 0.787500000 _0_ RTR  IFQ 13 cbr 520 [0 0 0 0] ------- [0:0 9:0 30 0] [13] 0 0
s 0.796428571 _0_ AGT  --- 78 cbr 500 [0 0 0 0] ------- [0:0 9:0 32 0] [78] 0 0
r 0.796428571 _0_ RTR  --- 78 cbr 500 [0 0 0 0] ------- [0:0 9:0 32 0] [78] 0 0
D 0.796428571 _0_ RTR  IFQ 14 cbr 520 [0 0 0 0] ------- [0:0 9:0 30 0] [14] 0 0
s 0.805357143 _0_ AGT  --- 79 cbr 500 [0 0 0 0] ------- [0:0 9:0 32 0] [79] 0 0
r 0.805357143 _0_ RTR  --- 79 cbr 500 [0 0 0 0] ------- [0:0 9:0 32 0] [79] 0 0
D 0.805357143 _0_ RTR  IFQ 15 cbr 520 [0 0 0 0] ------- [0:0 9:0 30 0] [15] 0 0
s 0.814285714 _0_ AGT  --- 80 cbr 500 [0 0 0 0] ------- [0:0 9:0 32 0] [80] 0 0
r 0.814285714 _0_ RTR  --- 80 cbr 500 [0 0 0 0] ------- [0:0 9:0 32 0] [80] 0 0
D 0.814285714 _0_ RTR  IFQ 16 cbr 520 [0 0 0 0] ------- [0:0 9:0 30 0] [16] 0 0
s 0.823214286 _0_ AGT  --- 81 cbr 500 [0 0 0 0] ------- [0:0 9:0 32 0] [81] 0 0
r 0.823214286 _0_ RTR  --- 81 cbr 500 [0 0 0 0] ------- [0:0 9:0 32 0] [81] 0 0
D 0.823214286 _0_ RTR  IFQ 17 cbr 520 [0 0 0 0] ------- [0:0 9:0 30 0] [17] 0 0
s 0.832142857 _0_ AGT  --- 82 cbr 500 [0 0 0 0] ------- [0:0 9:0 32 0] [82] 0 0
r 0.832142857 _0_ RTR  --- 82 cbr 500 [0 0 0 0] ------- [0:0 9:0 32 0] [82] 0 0
D 0.832142857 _0_ RTR  IFQ 18 cbr 520 [0 0 0 0] ------- [0:0 9:0 30 0] [18] 0 0
s 0.841071429 _0_ AGT  --- 83 cbr 500 [0 0 0 0] ------- [0:0 9:0 32 0] [83] 0 0
r 0.841071429 _0_ RTR  --- 83 cbr 500 [0 0 0 0] ------- [0:0 9:0 32 0] [83] 0 0
D 0.841071429 _0_ RTR  IFQ 19 cbr 520 [0 0 0 0] ------- [0:0 9:0 30 0] [19] 0 0
s 0.850000000 _0_ AGT  --- 84 cbr 500 [0 0 0 0] ------- [0:0 9:0 32 0] [84] 0 0
r 0.850000000 _0_ RTR  --- 84 cbr 500 [0 0 0 0] ------- [0:0 9:0 32 0] [84] 0 0
D 0.850000000 _0_ RTR  IFQ 20 cbr 520 [0 0 0 0] ------- [0:0 9:0 30 0] [20] 0 0
s 0.858928571 _0_ AGT  --- 85 cbr 500 [0 0 0 0] ------- [0:0 9:0 32 0] [85] 0 0
r 0.858928571 _0_ RTR  --- 85 cbr 500 [0 0 0 0] ------- [0:0 9:0 32 0] [85] 0 0
D 0.858928571 _0_ RTR  IFQ 21 cbr 520 [0 0 0 0] ------- [0:0 9:0 30 0] [21] 0 0
s 0.867857143 _0_ AGT  --- 86 cbr 500 [0 0 0 0] ------- [0:0 9:0 32 0] [86] 0 0
r 0.867857143 _0_ RTR  --- 86 cbr 500 [0 0 0 0] ------- [0:0 9:0 32 0] [86] 0 0
D 0.867857143 _0_ RTR  IFQ 22 cbr 520 [0 0 0 0] ------- [0:0 9:0 30 0] [22] 0 0
s 0.876785714 _0_ AGT  --- 87 cbr 500 [0 0 0 0] ------- [0:0 9:0 32 0] [87] 0 0
r 0.876785714 _0_ RTR  --- 87 cbr 500 [0 0 0 0] ------- [0:0 9:0 32 0] [87] 0 0
D 0.876785714 _0_ RTR  IFQ 23 cbr 520 [0 0 0 0] ------- [0:0 9:0 30 0] [23] 0 0
s 0.885714286 _0_ AGT  --- 88 cbr 500 [0 0 0 0] ------- [0:0 9:0 32 0] [88] 0 0
r 0.885714286 _0_ RTR  --- 88 cbr 500 [0 0 0 0] ------- [0:0 9:0 32 0] [88] 0 0
D 0.885714286 _0_ RTR  IFQ 24 cbr 520 [0 0 0 0] ------- [0:0 9:0 30 0] [24] 0 0
s 0.894642857 _0_ AGT  --- 89 cbr 500 [0 0 0 0] ------- [0:0 9:0 32 0] [89] 0 0
r 0.894642857 _0_ RTR  --- 89 cbr 500 [0 0 0 0] ------- [0:0 9:0 32 0] [89] 0 0
D 0.894642857 _0_ RTR  IFQ 25 cbr 520 [0 0 0 0] ------- [0:0 9:0 30 0] [25] 0 0
s 0.903571429 _0_ AGT  --- 90 cbr 500 [0 0 0 0] ------- [0:0 9:0 32 0] [90] 0 0
r 0.903571429 _0_ RTR  --- 90 cbr 500 [0 0 0 0] ------- [0:0 9:0 32 0] [90] 0 0
D 0.903571429 _0_ RTR  IFQ 26 cbr 520 [0 0 0 0] ------- [0:0 9:0 30 0] [26] 0 0
s 0.912500000 _0_ AGT  --- 91 cbr 500 [0 0 0 0] ------- [0:0 9:0 32 0] [91] 0 0
r 0.912500000 _0_ RTR  --- 91 cbr 500 [0 0 0 0] ------- [0:0 9:0 32 0] [91] 0 0
D 0.912500000 _0_ RTR  IFQ 27 cbr 520 [0 0 0 0] ------- [0:0 9:0 30 0] [27] 0 0
s 0.921428571 _0_ AGT  --- 92 cbr 500 [0 0 0 0] ------- [0:0 9:0 32 0] [92] 0 0
r 0.921428571 _0_ RTR  --- 92 cbr 500 [0 0 0 0] ------- [0:0 9:0 32 0] [92] 0 0
D 0.921428571 _0_ RTR  IFQ 28 cbr 520 [0 0 0 0] ------- [0:0 9:0 30 0] [28] 0 0
s 0.930357143 _0_ AGT  --- 93 cbr 500 [0 0 0 0] ------- [0:0 9:0 32 0] [93] 0 0
r 0.930357143 _0_ RTR  --- 93 cbr 500 [0 0 0 0] ------- [0:0 9:0 32 0] [93] 0 0
D 0.930357143 _0_ RTR  IFQ 29 cbr 520 [0 0 0 0] ------- [0:0 9:0 30 0] [29] 0 0
s 0.939285714 _0_ AGT  --- 94 cbr 500 [0 0 0 0] ------- [0:0 9:0 32 0] [94] 0 0
r 0.939285714 _0_ RTR  --- 94 cbr 500 [0 0 0 0] ------- [0:0 9:0 32 0] [94] 0 0
D 0.939285714 _0_ RTR  IFQ 30 cbr 520 [0 0 0 0] ------- [0:0 9:0 30 0] [30] 0 0
s 0.948214286 _0_ AGT  --- 95 cbr 500 [0 0 0 0] ------- [0:0 9:0 32 0] [95] 0 0
r 0.948214286 _0_ RTR  --- 95 cbr 500 [0 0 0 0] ------- [0:0 9:0 32 0] [95] 0 0
D 0.948214286 _0_ RTR  IFQ 31 cbr 520 [0 0 0 0] ------- [0:0 9:0 30 0] [31] 0 0
s 0.957142857 _0_ AGT  --- 96 cbr 500 [0 0 0 0] ------- [0:0 9:0 32 0] [96] 0 0
r 0.957142857 _0_ RTR  --- 96 cbr 500 [0 0 0 0] ------- [0:0 9:0 32 0] [96] 0 0
D 0.957142857 _0_ RTR  IFQ 32 cbr 520 [0 0 0 0] ------- [0:0 9:0 30 0] [32] 0 0
s 0.966071429 _0_ AGT  --- 97 cbr 500 [0 0 0 0] ------- [0:0 9:0 32 0] [97] 0 0
r 0.966071429 _0_ RTR  --- 97 cbr 500 [0 0 0 0] ------- [0:0 9:0 32 0] [97] 0 0
D 0.966071429 _0_ RTR  IFQ 33 cbr 520 [0 0 0 0] ------- [0:0 9:0 30 0] [33] 0 0
s 0.975000000 _0_ AGT  --- 98 cbr 500 [0 0 0 0] ------- [0:0 9:0 32 0] [98] 0 0
r 0.975000000 _0_ RTR  --- 98 cbr 500 [0 0 0 0] ------- [0:0 9:0 32 0] [98] 0 0
D 0.975000000 _0_ RTR  IFQ 34 cbr 520 [0 0 0 0] ------- [0:0 9:0 30 0] [34] 0 0
s 0.983928571 _0_ AGT  --- 99 cbr 500 [0 0 0 0] ------- [0:0 9:0 32 0] [99] 0 0
r 0.983928571 _0_ RTR  --- 99 cbr 500 [0 0 0 0] ------- [0:0 9:0 32 0] [99] 0 0
D 0.983928571 _0_ RTR  IFQ 35 cbr 520 [0 0 0 0] ------- [0:0 9:0 30 0] [35] 0 0
s 0.992857143 _0_ AGT  --- 100 cbr 500 [0 0 0 0] ------- [0:0 9:0 32 0] [100] 0 0
r 0.992857143 _0_ RTR  --- 100 cbr 500 [0 0 0 0] ------- [0:0 9:0 32 0] [100] 0 0
D 0.992857143 _0_ RTR  IFQ 36 cbr 520 [0 0 0 0] ------- [0:0 9:0 30 0] [36] 0 0
M 1.00000 2 (250.00, 250.00, 0.00), (697.00, 645.00), 250.00
s 1.001785714 _0_ AGT  --- 101 cbr 500 [0 0 0 0] ------- [0:0 9:0 32 0] [101] 0 0
r 1.001785714 _0_ RTR  --- 101 cbr 500 [0 0 0 0] ------- [0:0 9:0 32 0] [101] 0 0
D 1.001785714 _0_ RTR  IFQ 37 cbr 520 [0 0 0 0] ------- [0:0 9:0 30 0] [37] 0 0
s 1.010714286 _0_ AGT  --- 102 cbr 500 [0 0 0 0] ------- [0:0 9:0 32 0] [102] 0 0
r 1.010714286 _0_ RTR  --- 102 cbr 500 [0 0 0 0] ------- [0:0 9:0 32 0] [102] 0 0
D 1.010714286 _0_ RTR  IFQ 38 cbr 520 [0 0 0 0] ------- [0:0 9:0 30 0] [38] 0 0
s 1.019642857 _0_ AGT  --- 103 cbr 500 [0 0 0 0] ------- [0:0 9:0 32 0] [103] 0 0
r 1.019642857 _0_ RTR  --- 103 cbr 500 [0 0 0 0] ------- [0:0 9:0 32 0] [103] 0 0
D 1.019642857 _0_ RTR  IFQ 39 cbr 520 [0 0 0 0] ------- [0:0 9:0 30 0] [39] 0 0
s 1.028571429 _0_ AGT  --- 104 cbr 500 [0 0 0 0] ------- [0:0 9:0 32 0] [104] 0 0
r 1.028571429 _0_ RTR  --- 104 cbr 500 [0 0 0 0] ------- [0:0 9:0 32 0] [104] 0 0
D 1.028571429 _0_ RTR  IFQ 40 cbr 520 [0 0 0 0] ------- [0:0 9:0 30 0] [40] 0 0
s 1.037500000 _0_ AGT  --- 105 cbr 500 [0 0 0 0] ------- [0:0 9:0 32 0] [105] 0 0
r 1.037500000 _0_ RTR  --- 105 cbr 500 [0 0 0 0] ------- [0:0 9:0 32 0] [105] 0 0
D 1.037500000 _0_ RTR  IFQ 41 cbr 520 [0 0 0 0] ------- [0:0 9:0 30 0] [41] 0 0
s 1.046428571 _0_ AGT  --- 106 cbr 500 [0 0 0 0] ------- [0:0 9:0 32 0] [106] 0 0
r 1.046428571 _0_ RTR  --- 106 cbr 500 [0 0 0 0] ------- [0:0 9:0 32 0] [106] 0 0
D 1.046428571 _0_ RTR  IFQ 42 cbr 520 [0 0 0 0] ------- [0:0 9:0 30 0] [42] 0 0
s 1.055357143 _0_ AGT  --- 107 cbr 500 [0 0 0 0] ------- [0:0 9:0 32 0] [107] 0 0
r 1.055357143 _0_ RTR  --- 107 cbr 500 [0 0 0 0] ------- [0:0 9:0 32 0] [107] 0 0
D 1.055357143 _0_ RTR  IFQ 43 cbr 520 [0 0 0 0] ------- [0:0 9:0 30 0] [43] 0 0
s 1.064285714 _0_ AGT  --- 108 cbr 500 [0 0 0 0] ------- [0:0 9:0 32 0] [108] 0 0
r 1.064285714 _0_ RTR  --- 108 cbr 500 [0 0 0 0] ------- [0:0 9:0 32 0] [108] 0 0
D 1.064285714 _0_ RTR  IFQ 44 cbr 520 [0 0 0 0] ------- [0:0 9:0 30 0] [44] 0 0
s 1.073214286 _0_ AGT  --- 109 cbr 500 [0 0 0 0] ------- [0:0 9:0 32 0] [109] 0 0
r 1.073214286 _0_ RTR  --- 109 cbr 500 [0 0 0 0] ------- [0:0 9:0 32 0] [109] 0 0
D 1.073214286 _0_ RTR  IFQ 45 cbr 520 [0 0 0 0] ------- [0:0 9:0 30 0] [45] 0 0
s 1.082142857 _0_ AGT  --- 110 cbr 500 [0 0 0 0] ------- [0:0 9:0 32 0] [110] 0 0
r 1.082142857 _0_ RTR  --- 110 cbr 500 [0 0 0 0] ------- [0:0 9:0 32 0] [110] 0 0
D 1.082142857 _0_ RTR  IFQ 46 cbr 520 [0 0 0 0] ------- [0:0 9:0 30 0] [46] 0 0
s 1.091071429 _0_ AGT  --- 111 cbr 500 [0 0 0 0] ------- [0:0 9:0 32 0] [111] 0 0
r 1.091071429 _0_ RTR  --- 111 cbr 500 [0 0 0 0] ------- [0:0 9:0 32 0] [111] 0 0
D 1.091071429 _0_ RTR  IFQ 47 cbr 520 [0 0 0 0] ------- [0:0 9:0 30 0] [47] 0 0
s 1.100000000 _0_ AGT  --- 112 cbr 500 [0 0 0 0] ------- [0:0 9:0 32 0] [112] 0 0
r 1.100000000 _0_ RTR  --- 112 cbr 500 [0 0 0 0] ------- [0:0 9:0 32 0] [112] 0 0
D 1.100000000 _0_ RTR  IFQ 48 cbr 520 [0 0 0 0] ------- [0:0 9:0 30 0] [48] 0 0
s 1.108928571 _0_ AGT  --- 113 cbr 500 [0 0 0 0] ------- [0:0 9:0 32 0] [113] 0 0
r 1.108928571 _0_ RTR  --- 113 cbr 500 [0 0 0 0] ------- [0:0 9:0 32 0] [113] 0 0
D 1.108928571 _0_ RTR  IFQ 49 cbr 520 [0 0 0 0] ------- [0:0 9:0 30 0] [49] 0 0
s 1.117857143 _0_ AGT  --- 114 cbr 500 [0 0 0 0] ------- [0:0 9:0 32 0] [114] 0 0
r 1.117857143 _0_ RTR  --- 114 cbr 500 [0 0 0 0] ------- [0:0 9:0 32 0] [114] 0 0
D 1.117857143 _0_ RTR  IFQ 50 cbr 520 [0 0 0 0] ------- [0:0 9:0 30 0] [50] 0 0
s 1.126785714 _0_ AGT  --- 115 cbr 500 [0 0 0 0] ------- [0:0 9:0 32 0] [115] 0 0
r 1.126785714 _0_ RTR  --- 115 cbr 500 [0 0 0 0] ------- [0:0 9:0 32 0] [115] 0 0
D 1.126785714 _0_ RTR  IFQ 51 cbr 520 [0 0 0 0] ------- [0:0 9:0 30 0] [51] 0 0
s 1.135714286 _0_ AGT  --- 116 cbr 500 [0 0 0 0] ------- [0:0 9:0 32 0] [116] 0 0
r 1.135714286 _0_ RTR  --- 116 cbr 500 [0 0 0 0] ------- [0:0 9:0 32 0] [116] 0 0
D 1.135714286 _0_ RTR  IFQ 52 cbr 520 [0 0 0 0] ------- [0:0 9:0 30 0] [52] 0 0
s 1.144642857 _0_ AGT  --- 117 cbr 500 [0 0 0 0] ------- [0:0 9:0 32 0] [117] 0 0
r 1.144642857 _0_ RTR  --- 117 cbr 500 [0 0 0 0] ------- [0:0 9:0 32 0] [117] 0 0
D 1.144642857 _0_ RTR  IFQ 53 cbr 520 [0 0 0 0] ------- [0:0 9:0 30 0] [53] 0 0
s 1.153571429 _0_ AGT  --- 118 cbr 500 [0 0 0 0] ------- [0:0 9:0 32 0] [118] 0 0
r 1.153571429 _0_ RTR  --- 118 cbr 500 [0 0 0 0] ------- [0:0 9:0 32 0] [118] 0 0
D 1.153571429 _0_ RTR  IFQ 54 cbr 520 [0 0 0 0] ------- [0:0 9:0 30 0] [54] 0 0
s 1.162500000 _0_ AGT  --- 119 cbr 500 [0 0 0 0] ------- [0:0 9:0 32 0] [119] 0 0
r 1.162500000 _0_ RTR  --- 119 cbr 500 [0 0 0 0] ------- [0:0 9:0 32 0] [119] 0 0
D 1.162500000 _0_ RTR  IFQ 55 cbr 520 [0 0 0 0] ------- [0:0 9:0 30 0] [55] 0 0
s 1.171428571 _0_ AGT  --- 120 cbr 500 [0 0 0 0] ------- [0:0 9:0 32 0] [120] 0 0
r 1.171428571 _0_ RTR  --- 120 cbr 500 [0 0 0 0] ------- [0:0 9:0 32 0] [120] 0 0
D 1.171428571 _0_ RTR  IFQ 56 cbr 520 [0 0 0 0] ------- [0:0 9:0 30 0] [56] 0 0
s 1.180357143 _0_ AGT  --- 121 cbr 500 [0 0 0 0] ------- [0:0 9:0 32 0] [121] 0 0
r 1.180357143 _0_ RTR  --- 121 cbr 500 [0 0 0 0] ------- [0:0 9:0 32 0] [121] 0 0
D 1.180357143 _0_ RTR  IFQ 57 cbr 520 [0 0 0 0] ------- [0:0 9:0 30 0] [57] 0 0
s 1.189285714 _0_ AGT  --- 122 cbr 500 [0 0 0 0] ------- [0:0 9:0 32 0] [122] 0 0
r 1.189285714 _0_ RTR  --- 122 cbr 500 [0 0 0 0] ------- [0:0 9:0 32 0] [122] 0 0
D 1.189285714 _0_ RTR  IFQ 58 cbr 520 [0 0 0 0] ------- [0:0 9:0 30 0] [58] 0 0
s 1.198214286 _0_ AGT  --- 123 cbr 500 [0 0 0 0] ------- [0:0 9:0 32 0] [123] 0 0
r 1.198214286 _0_ RTR  --- 123 cbr 500 [0 0 0 0] ------- [0:0 9:0 32 0] [123] 0 0
D 1.198214286 _0_ RTR  IFQ 59 cbr 520 [0 0 0 0] ------- [0:0 9:0 30 0] [59] 0 0
s 1.207142857 _0_ AGT  --- 124 cbr 500 [0 0 0 0] ------- [0:0 9:0 32 0] [124] 0 0
r 1.207142857 _0_ RTR  --- 124 cbr 500 [0 0 0 0] ------- [0:0 9:0 32 0] [124] 0 0
D 1.207142857 _0_ RTR  IFQ 60 cbr 520 [0 0 0 0] ------- [0:0 9:0 30 0] [60] 0 0
s 1.216071429 _0_ AGT  --- 125 cbr 500 [0 0 0 0] ------- [0:0 9:0 32 0] [125] 0 0
r 1.216071429 _0_ RTR  --- 125 cbr 500 [0 0 0 0] ------- [0:0 9:0 32 0] [125] 0 0
D 1.216071429 _0_ RTR  IFQ 61 cbr 520 [0 0 0 0] ------- [0:0 9:0 30 0] [61] 0 0
s 1.225000000 _0_ AGT  --- 126 cbr 500 [0 0 0 0] ------- [0:0 9:0 32 0] [126] 0 0
r 1.225000000 _0_ RTR  --- 126 cbr 500 [0 0 0 0] ------- [0:0 9:0 32 0] [126] 0 0
D 1.225000000 _0_ RTR  IFQ 62 cbr 520 [0 0 0 0] ------- [0:0 9:0 30 0] [62] 0 0
s 1.233928571 _0_ AGT  --- 127 cbr 500 [0 0 0 0] ------- [0:0 9:0 32 0] [127] 0 0
r 1.233928571 _0_ RTR  --- 127 cbr 500 [0 0 0 0] ------- [0:0 9:0 32 0] [127] 0 0
D 1.233928571 _0_ RTR  IFQ 63 cbr 520 [0 0 0 0] ------- [0:0 9:0 30 0] [63] 0 0
s 1.242857143 _0_ AGT  --- 128 cbr 500 [0 0 0 0] ------- [0:0 9:0 32 0] [128] 0 0
r 1.242857143 _0_ RTR  --- 128 cbr 500 [0 0 0 0] ------- [0:0 9:0 32 0] [128] 0 0
D 1.242857143 _0_ RTR  IFQ 64 cbr 520 [0 0 0 0] ------- [0:0 9:0 30 0] [64] 0 0
s 1.251785714 _0_ AGT  --- 129 cbr 500 [0 0 0 0] ------- [0:0 9:0 32 0] [129] 0 0
r 1.251785714 _0_ RTR  --- 129 cbr 500 [0 0 0 0] ------- [0:0 9:0 32 0] [129] 0 0
D 1.251785714 _0_ RTR  IFQ 65 cbr 520 [0 0 0 0] ------- [0:0 9:0 30 0] [65] 0 0
s 1.260714286 _0_ AGT  --- 130 cbr 500 [0 0 0 0] ------- [0:0 9:0 32 0] [130] 0 0
r 1.260714286 _0_ RTR  --- 130 cbr 500 [0 0 0 0] ------- [0:0 9:0 32 0] [130] 0 0
D 1.260714286 _0_ RTR  IFQ 66 cbr 520 [0 0 0 0] ------- [0:0 9:0 30 0] [66] 0 0
s 1.269642857 _0_ AGT  --- 131 cbr 500 [0 0 0 0] ------- [0:0 9:0 32 0] [131] 0 0
r 1.269642857 _0_ RTR  --- 131 cbr 500 [0 0 0 0] ------- [0:0 9:0 32 0] [131] 0 0
D 1.269642857 _0_ RTR  IFQ 67 cbr 520 [0 0 0 0] ------- [0:0 9:0 30 0] [67] 0 0
s 1.278571429 _0_ AGT  --- 132 cbr 500 [0 0 0 0] ------- [0:0 9:0 32 0] [132] 0 0
r 1.278571429 _0_ RTR  --- 132 cbr 500 [0 0 0 0] ------- [0:0 9:0 32 0] [132] 0 0
D 1.278571429 _0_ RTR  IFQ 68 cbr 520 [0 0 0 0] ------- [0:0 9:0 30 0] [68] 0 0