Sconfig 0.00000 tap: on snoop: rts? on errs? on
Sconfig 0.00000 salvage: on !bd replies? on
Sconfig 0.00000 grat error: on grat reply: on
Sconfig 0.00000 $reply for props: on ring 0 search: on
Sconfig 0.00000 using MOBICACHE
M 0.00000 0 (250.00, 250.00, 0.00), (558.00, 617.00), 250.00
s 0.100000000 _0_ AGT  --- 0 cbr 500 [0 0 0 0] ------- [0:0 9:0 32 0] [0] 0 0
r 0.100000000 _0_ RTR  --- 0 cbr 500 [0 0 0 0] ------- [0:0 9:0 32 0] [0] 0 0
s 0.102171595 _0_ RTR  --- 1 DSR 32 [0 0 0 0] ------- [0:255 9:255 32 0] 1 [1 1] [0 1 0 0->0] [0 0 0 0->0]
r 0.103351680 _1_ RTR  --- 1 DSR 32 [0 ffffffff 0 800] ------- [0:255 9:255 32 0] 1 [1 1] [0 1 0 0->0] [0 0 0 0->0]
r 0.103351680 _2_ RTR  --- 1 DSR 32 [0 ffffffff 0 800] ------- [0:255 9:255 32 0] 1 [1 1] [0 1 0 0->0] [0 0 0 0->0]
r 0.103351680 _3_ RTR  --- 1 DSR 32 [0 ffffffff 0 800] ------- [0:255 9:255 32 0] 1 [1 1] [0 1 0 0->0] [0 0 0 0->0]
r 0.103351680 _4_ RTR  --- 1 DSR 32 [0 ffffffff 0 800] ------- [0:255 9:255 32 0] 1 [1 1] [0 1 0 0->0] [0 0 0 0->0]
s 0.108928571 _0_ AGT  --- 3 cbr 500 [0 0 0 0] ------- [0:0 9:0 32 0] [1] 0 0
r 0.108928571 _0_ RTR  --- 3 cbr 500 [0 0 0 0] ------- [0:0 9:0 32 0] [1] 0 0
s 0.117857143 _0_ AGT  --- 5 cbr 500 [0 0 0 0] ------- [0:0 9:0 32 0] [2] 0 0
r 0.117857143 _0_ RTR  --- 5 cbr 500 [0 0 0 0] ------- [0:0 9:0 32 0] [2] 0 0
s 0.126785714 _0_ AGT  --- 7 cbr 500 [0 0 0 0] ------- [0:0 9:0 32 0] [3] 0 0
r 0.126785714 _0_ RTR  --- 7 cbr 500 [0 0 0 0] ------- [0:0 9:0 32 0] [3] 0 0
s 0.135714286 _0_ AGT  --- 9 cbr 500 [0 0 0 0] ------- [0:0 9:0 32 0] [4] 0 0
r 0.135714286 _0_ RTR  --- 9 cbr 500 [0 0 0 0] ------- [0:0 9:0 32 0] [4] 0 0
s 0.144588721 _0_ RTR  --- 10 DSR 32 [0 0 0 0] ------- [0:255 9:255 32 0] 1 [1 2] [0 2 0 0->0] [0 0 0 0->0]
s 0.144642857 _0_ AGT  --- 11 cbr 500 [0 0 0 0] ------- [0:0 9:0 32 0] [5] 0 0
r 0.144642857 _0_ RTR  --- 11 cbr 500 [0 0 0 0] ------- [0:0 9:0 32 0] [5] 0 0
r 0.145608842 _4_ RTR  --- 10 DSR 32 [0 ffffffff 0 800] ------- [0:255 9:255 32 0] 1 [1 2] [0 2 0 0->0] [0 0 0 0->0]
r 0.145608842 _3_ RTR  --- 10 DSR 32 [0 ffffffff 0 800] ------- [0:255 9:255 32 0] 1 [1 2] [0 2 0 0->0] [0 0 0 0->0]
r 0.145608842 _2_ RTR  --- 10 DSR 32 [0 ffffffff 0 800] ------- [0:255 9:255 32 0] 1 [1 2] [0 2 0 0->0] [0 0 0 0->0]
r 0.145608842 _1_ RTR  --- 10 DSR 32 [0 ffffffff 0 800] ------- [0:255 9:255 32 0] 1 [1 2] [0 2 0 0->0] [0 0 0 0->0]
f 0.145716925 _4_ RTR  --- 10 DSR 48 [0 ffffffff 0 800] ------- [0:255 9:255 32 0] 2 [1 2] [0 2 0 0->0] [0 0 0 0->0]
f 0.146839877 _1_ RTR  --- 10 DSR 48 [0 ffffffff 0 800] ------- [0:255 9:255 32 0] 2 [1 2] [0 2 0 0->0] [0 0 0 0->0]
r 0.146844925 _3_ RTR  --- 10 DSR 48 [0 ffffffff 4 800] ------- [0:255 9:255 32 0] 2 [1 2] [0 2 0 0->0] [0 0 0 0->0]
r 0.146844925 _2_ RTR  --- 10 DSR 48 [0 ffffffff 4 800] ------- [0:255 9:255 32 0] 2 [1 2] [0 2 0 0->0] [0 0 0 0->0]
r 0.146844925 _1_ RTR  --- 10 DSR 48 [0 ffffffff 4 800] ------- [0:255 9:255 32 0] 2 [1 2] [0 2 0 0->0] [0 0 0 0->0]
r 0.146845047 _0_ RTR  --- 10 DSR 48 [0 ffffffff 4 800] ------- [0:255 9:255 32 0] 2 [1 2] [0 2 0 0->0] [0 0 0 0->0]
r 0.148267877 _2_ RTR  --- 10 DSR 48 [0 ffffffff 1 800] ------- [0:255 9:255 32 0] 2 [1 2] [0 2 0 0->0] [0 0 0 0->0]
r 0.148267877 _3_ RTR  --- 10 DSR 48 [0 ffffffff 1 800] ------- [0:255 9:255 32 0] 2 [1 2] [0 2 0 0->0] [0 0 0 0->0]
r 0.148267877 _4_ RTR  --- 10 DSR 48 [0 ffffffff 1 800] ------- [0:255 9:255 32 0] 2 [1 2] [0 2 0 0->0] [0 0 0 0->0]
r 0.148268000 _0_ RTR  --- 10 DSR 48 [0 ffffffff 1 800] ------- [0:255 9:255 32 0] 2 [1 2] [0 2 0 0->0] [0 0 0 0->0]
f 0.148965469 _2_ RTR  --- 10 DSR 48 [0 ffffffff 0 800] ------- [0:255 9:255 32 0] 2 [1 2] [0 2 0 0->0] [0 0 0 0->0]
r 0.150233469 _1_ RTR  --- 10 DSR 48 [0 ffffffff 2 800] ------- [0:255 9:255 32 0] 2 [1 2] [0 2 0 0->0] [0 0 0 0->0]
r 0.150233469 _3_ RTR  --- 10 DSR 48 [0 ffffffff 2 800] ------- [0:255 9:255 32 0] 2 [1 2] [0 2 0 0->0] [0 0 0 0->0]
r 0.150233469 _4_ RTR  --- 10 DSR 48 [0 ffffffff 2 800] ------- [0:255 9:255 32 0] 2 [1 2] [0 2 0 0->0] [0 0 0 0->0]
r 0.150233594 _0_ RTR  --- 10 DSR 48 [0 ffffffff 2 800] ------- [0:255 9:255 32 0] 2 [1 2] [0 2 0 0->0] [0 0 0 0->0]
f 0.151559116 _3_ RTR  --- 10 DSR 48 [0 ffffffff 0 800] ------- [0:255 9:255 32 0] 2 [1 2] [0 2 0 0->0] [0 0 0 0->0]
r 0.152727116 _2_ RTR  --- 10 DSR 48 [0 ffffffff 3 800] ------- [0:255 9:255 32 0] 2 [1 2] [0 2 0 0->0] [0 0 0 0->0]
r 0.152727116 _1_ RTR  --- 10 DSR 48 [0 ffffffff 3 800] ------- [0:255 9:255 32 0] 2 [1 2] [0 2 0 0->0] [0 0 0 0->0]
r 0.152727116 _4_ RTR  --- 10 DSR 48 [0 ffffffff 3 800] ------- [0:255 9:255 32 0] 2 [1 2] [0 2 0 0->0] [0 0 0 0->0]
r 0.152727242 _0_ RTR  --- 10 DSR 48 [0 ffffffff 3 800] ------- [0:255 9:255 32 0] 2 [1 2] [0 2 0 0->0] [0 0 0 0->0]
s 0.153571429 _0_ AGT  --- 13 cbr 500 [0 0 0 0] ------- [0:0 9:0 32 0] [6] 0 0
r 0.153571429 _0_ RTR  --- 13 cbr 500 [0 0 0 0] ------- [0:0 9:0 32 0] [6] 0 0
s 0.162500000 _0_ AGT  --- 22 cbr 500 [0 0 0 0] ------- [0:0 9:0 32 0] [7] 0 0
r 0.162500000 _0_ RTR  --- 22 cbr 500 [0 0 0 0] ------- [0:0 9:0 32 0] [7] 0 0
s 0.171428571 _0_ AGT  --- 24 cbr 500 [0 0 0 0] ------- [0:0 9:0 32 0] [8] 0 0
r 0.171428571 _0_ RTR  --- 24 cbr 500 [0 0 0 0] ------- [0:0 9:0 32 0] [8] 0 0
s 0.180357143 _0_ AGT  --- 26 cbr 500 [0 0 0 0] ------- [0:0 9:0 32 0] [9] 0 0
r 0.180357143 _0_ RTR  --- 26 cbr 500 [0 0 0 0] ------- [0:0 9:0 32 0] [9] 0 0
s 0.189285714 _0_ AGT  --- 28 cbr 500 [0 0 0 0] ------- [0:0 9:0 32 0] [10] 0 0
r 0.189285714 _0_ RTR  --- 28 cbr 500 [0 0 0 0] ------- [0:0 9:0 32 0] [10] 0 0
s 0.198214286 _0_ AGT  --- 30 cbr 500 [0 0 0 0] ------- [0:0 9:0 32 0] [11] 0 0
r 0.198214286 _0_ RTR  --- 30 cbr 500 [0 0 0 0] ------- [0:0 9:0 32 0] [11] 0 0
s 0.207142857 _0_ AGT  --- 32 cbr 500 [0 0 0 0] ------- [0:0 9:0 32 0] [12] 0 0
r 0.207142857 _0_ RTR  --- 32 cbr 500 [0 0 0 0] ------- [0:0 9:0 32 0] [12] 0 0
s 0.216071429 _0_ AGT  --- 47 cbr 500 [0 0 0 0] ------- [0:0 9:0 32 0] [13] 0 0
r 0.216071429 _0_ RTR  --- 47 cbr 500 [0 0 0 0] ------- [0:0 9:0 32 0] [13] 0 0
s 0.225000000 _0_ AGT  --- 49 cbr 500 [0 0 0 0] ------- [0:0 9:0 32 0] [14] 0 0
r 0.225000000 _0_ RTR  --- 49 cbr 500 [0 0 0 0] ------- [0:0 9:0 32 0] [14] 0 0
s 0.233928571 _0_ AGT  --- 51 cbr 500 [0 0 0 0] ------- [0:0 9:0 32 0] [15] 0 0
r 0.233928571 _0_ RTR  --- 51 cbr 500 [0 0 0 0] ------- [0:0 9:0 32 0] [15] 0 0
s 0.242857143 _0_ AGT  --- 53 cbr 500 [0 0 0 0] ------- [0:0 9:0 32 0] [16] 0 0
r 0.242857143 _0_ RTR  --- 53 cbr 500 [0 0 0 0] ------- [0:0 9:0 32 0] [16] 0 0
s 0.251785714 _0_ AGT  --- 55 cbr 500 [0 0 0 0] ------- [0:0 9:0 32 0] [17] 0 0
r 0.251785714 _0_ RTR  --- 55 cbr 500 [0 0 0 0] ------- [0:0 9:0 32 0] [17] 0 0
s 0.260714286 _0_ AGT  --- 75 cbr 500 [0 0 0 0] ------- [0:0 9:0 32 0] [18] 0 0
r 0.260714286 _0_ RTR  --- 75 cbr 500 [0 0 0 0] ------- [0:0 9:0 32 0] [18] 0 0
s 0.269642857 _0_ AGT  --- 77 cbr 500 [0 0 0 0] ------- [0:0 9:0 32 0] [19] 0 0
r 0.269642857 _0_ RTR  --- 77 cbr 500 [0 0 0 0] ------- [0:0 9:0 32 0] [19] 0 0
s 0.278571429 _0_ AGT  --- 79 cbr 500 [0 0 0 0] ------- [0:0 9:0 32 0] [20] 0 0
r 0.278571429 _0_ RTR  --- 79 cbr 500 [0 0 0 0] ------- [0:0 9:0 32 0] [20] 0 0
s 0.287500000 _0_ AGT  --- 81 cbr 500 [0 0 0 0] ------- [0:0 9:0 32 0] [21] 0 0
r 0.287500000 _0_ RTR  --- 81 cbr 500 [0 0 0 0] ------- [0:0 9:0 32 0] [21] 0 0
s 0.296428571 _0_ AGT  --- 83 cbr 500 [0 0 0 0] ------- [0:0 9:0 32 0] [22] 0 0
r 0.296428571 _0_ RTR  --- 83 cbr 500 [0 0 0 0] ------- [0:0 9:0 32 0] [22] 0 0
s 0.305357143 _0_ AGT  --- 108 cbr 500 [0 0 0 0] ------- [0:0 9:0 32 0] [23] 0 0
r 0.305357143 _0_ RTR  --- 108 cbr 500 [0 0 0 0] ------- [0:0 9:0 32 0] [23] 0 0
s 0.314285714 _0_ AGT  --- 110 cbr 500 [0 0 0 0] ------- [0:0 9:0 32 0] [24] 0 0
r 0.314285714 _0_ RTR  --- 110 cbr 500 [0 0 0 0] ------- [0:0 9:0 32 0] [24] 0 0
s 0.323214286 _0_ AGT  --- 112 cbr 500 [0 0 0 0] ------- [0:0 9:0 32 0] [25] 0 0
r 0.323214286 _0_ RTR  --- 112 cbr 500 [0 0 0 0] ------- [0:0 9:0 32 0] [25] 0 0
s 0.332142857 _0_ AGT  --- 114 cbr 500 [0 0 0 0] ------- [0:0 9:0 32 0] [26] 0 0
r 0.332142857 _0_ RTR  --- 114 cbr 500 [0 0 0 0] ------- [0:0 9:0 32 0] [26] 0 0
s 0.341071429 _0_ AGT  --- 116 cbr 500 [0 0 0 0] ------- [0:0 9:0 32 0] [27] 0 0
r 0.341071429 _0_ RTR  --- 116 cbr 500 [0 0 0 0] ------- [0:0 9:0 32 0] [27] 0 0
s 0.350000000 _0_ AGT  --- 146 cbr 500 [0 0 0 0] ------- [0:0 9:0 32 0] [28] 0 0
r 0.350000000 _0_ RTR  --- 146 cbr 500 [0 0 0 0] ------- [0:0 9:0 32 0] [28] 0 0
s 0.358928571 _0_ AGT  --- 148 cbr 500 [0 0 0 0] ------- [0:0 9:0 32 0] [29] 0 0
r 0.358928571 _0_ RTR  --- 148 cbr 500 [0 0 0 0] ------- [0:0 9:0 32 0] [29] 0 0
s 0.367857143 _0_ AGT  --- 150 cbr 500 [0 0 0 0] ------- [0:0 9:0 32 0] [30] 0 0
r 0.367857143 _0_ RTR  --- 150 cbr 500 [0 0 0 0] ------- [0:0 9:0 32 0] [30] 0 0
s 0.376785714 _0_ AGT  --- 152 cbr 500 [0 0 0 0] ------- [0:0 9:0 32 0] [31] 0 0
r 0.376785714 _0_ RTR  --- 152 cbr 500 [0 0 0 0] ------- [0:0 9:0 32 0] [31] 0 0
s 0.385714286 _0_ AGT  --- 154 cbr 500 [0 0 0 0] ------- [0:0 9:0 32 0] [32] 0 0
r 0.385714286 _0_ RTR  --- 154 cbr 500 [0 0 0 0] ------- [0:0 9:0 32 0] [32] 0 0
s 0.394642857 _0_ AGT  --- 156 cbr 500 [0 0 0 0] ------- [0:0 9:0 32 0] [33] 0 0
r 0.394642857 _0_ RTR  --- 156 cbr 500 [0 0 0 0] ------- [0:0 9:0 32 0] [33] 0 0
s 0.403571429 _0_ AGT  --- 192 cbr 500 [0 0 0 0] ------- [0:0 9:0 32 0] [34] 0 0
r 0.403571429 _0_ RTR  --- 192 cbr 500 [0 0 0 0] ------- [0:0 9:0 32 0] [34] 0 0
s 0.412500000 _0_ AGT  --- 194 cbr 500 [0 0 0 0] ------- [0:0 9:0 32 0] [35] 0 0
r 0.412500000 _0_ RTR  --- 194 cbr 500 [0 0 0 0] ------- [0:0 9:0 32 0] [35] 0 0
s 0.421428571 _0_ AGT  --- 196 cbr 500 [0 0 0 0] ------- [0:0 9:0 32 0] [36] 0 0
r 0.421428571 _0_ RTR  --- 196 cbr 500 [0 0 0 0] ------- [0:0 9:0 32 0] [36] 0 0
s 0.430357143 _0_ AGT  --- 235 cbr 500 [0 0 0 0] ------- [0:0 9:0 32 0] [37] 0 0
r 0.430357143 _0_ RTR  --- 235 cbr 500 [0 0 0 0] ------- [0:0 9:0 32 0] [37] 0 0
s 0.439285714 _0_ AGT  --- 237 cbr 500 [0 0 0 0] ------- [0:0 9:0 32 0] [38] 0 0
r 0.439285714 _0_ RTR  --- 237 cbr 500 [0 0 0 0] ------- [0:0 9:0 32 0] [38] 0 0
s 0.448214286 _0_ AGT  --- 239 cbr 500 [0 0 0 0] ------- [0:0 9:0 32 0] [39] 0 0
r 0.448214286 _0_ RTR  --- 239 cbr 500 [0 0 0 0] ------- [0:0 9:0 32 0] [39] 0 0
s 0.457142857 _0_ AGT  --- 241 cbr 500 [0 0 0 0] ------- [0:0 9:0 32 0] [40] 0 0
r 0.457142857 _0_ RTR  --- 241 cbr 500 [0 0 0 0] ------- [0:0 9:0 32 0] [40] 0 0
s 0.466071429 _0_ AGT  --- 243 cbr 500 [0 0 0 0] ------- [0:0 9:0 32 0] [41] 0 0
r 0.466071429 _0_ RTR  --- 243 cbr 500 [0 0 0 0] ------- [0:0 9:0 32 0] [41] 0 0
s 0.475000000 _0_ AGT  --- 287 cbr 500 [0 0 0 0] ------- [0:0 9:0 32 0] [42] 0 0
r 0.475000000 _0_ RTR  --- 287 cbr 500 [0 0 0 0] ------- [0:0 9:0 32 0] [42] 0 0
s 0.483928571 _0_ AGT  --- 289 cbr 500 [0 0 0 0] ------- [0:0 9:0 32 0] [43] 0 0
r 0.483928571 _0_ RTR  --- 289 cbr 500 [0 0 0 0] ------- [0:0 9:0 32 0] [43] 0 0
s 0.492857143 _0_ AGT  --- 291 cbr 500 [0 0 0 0] ------- [0:0 9:0 32 0] [44] 0 0
r 0.492857143 _0_ RTR  --- 291 cbr 500 [0 0 0 0] ------- [0:0 9:0 32 0] [44] 0 0
M 0.50000 1 (250.00, 250.00, 0.00), (658.00, 739.00), 250.00
s 0.501785714 _0_ AGT  --- 293 cbr 500 [0 0 0 0] ------- [0:0 9:0 32 0] [45] 0 0
r 0.501785714 _0_ RTR  --- 293 cbr 500 [0 0 0 0] ------- [0:0 9:0 32 0] [45] 0 0
s 0.510714286 _0_ AGT  --- 341 cbr 500 [0 0 0 0] ------- [0:0 9:0 32 0] [46] 0 0
r 0.510714286 _0_ RTR  --- 341 cbr 500 [0 0 0 0] ------- [0:0 9:0 32 0] [46] 0 0
s 0.519642857 _0_ AGT  --- 343 cbr 500 [0 0 0 0] ------- [0:0 9:0 32 0] [47] 0 0
r 0.519642857 _0_ RTR  --- 343 cbr 500 [0 0 0 0] ------- [0:0 9:0 32 0] [47] 0 0
s 0.528571429 _0_ AGT  --- 345 cbr 500 [0 0 0 0] ------- [0:0 9:0 32 0] [48] 0 0
r 0.528571429 _0_ RTR  --- 345 cbr 500 [0 0 0 0] ------- [0:0 9:0 32 0] [48] 0 0
s 0.537500000 _0_ AGT  --- 347 cbr 500 [0 0 0 0] ------- [0:0 9:0 32 0] [49] 0 0
r 0.537500000 _0_ RTR  --- 347 cbr 500 [0 0 0 0] ------- [0:0 9:0 32 0] [49] 0 0
s 0.546428571 _0_ AGT  --- 349 cbr 500 [0 0 0 0] ------- [0:0 9:0 32 0] [50] 0 0
r 0.546428571 _0_ RTR  --- 349 cbr 500 [0 0 0 0] ------- [0:0 9:0 32 0] [50] 0 0
s 0.555357143 _0_ AGT  --- 351 cbr 500 [0 0 0 0] ------- [0:0 9:0 32 0] [51] 0 0
r 0.555357143 _0_ RTR  --- 351 cbr 500 [0 0 0 0] ------- [0:0 9:0 32 0] [51] 0 0
s 0.564285714 _0_ AGT  --- 405 cbr 500 [0 0 0 0] ------- [0:0 9:0 32 0] [52] 0 0
r 0.564285714 _0_ RTR  --- 405 cbr 500 [0 0 0 0] ------- [0:0 9:0 32 0] [52] 0 0
s 0.573214286 _0_ AGT  --- 407 cbr 500 [0 0 0 0] ------- [0:0 9:0 32 0] [53] 0 0
r 0.573214286 _0_ RTR  --- 407 cbr 500 [0 0 0 0] ------- [0:0 9:0 32 0] [53] 0 0
s 0.582142857 _0_ AGT  --- 409 cbr 500 [0 0 0 0] ------- [0:0 9:0 32 0] [54] 0 0
r 0.582142857 _0_ RTR  --- 409 cbr 500 [0 0 0 0] ------- [0:0 9:0 32 0] [54] 0 0
s 0.591071429 _0_ AGT  --- 411 cbr 500 [0 0 0 0] ------- [0:0 9:0 32 0] [55] 0 0
r 0.591071429 _0_ RTR  --- 411 cbr 500 [0 0 0 0] ------- [0:0 9:0 32 0] [55] 0 0
s 0.600000000 _0_ AGT  --- 469 cbr 500 [0 0 0 0] ------- [0:0 9:0 32 0] [56] 0 0
r 0.600000000 _0_ RTR  --- 469 cbr 500 [0 0 0 0] ------- [0:0 9:0 32 0] [56] 0 0
s 0.608928571 _0_ AGT  --- 471 cbr 500 [0 0 0 0] ------- [0:0 9:0 32 0] [57] 0 0
r 0.608928571 _0_ RTR  --- 471 cbr 500 [0 0 0 0] ------- [0:0 9:0 32 0] [57] 0 0
s 0.617857143 _0_ AGT  --- 473 cbr 500 [0 0 0 0] ------- [0:0 9:0 32 0] [58] 0 0
r 0.617857143 _0_ RTR  --- 473 cbr 500 [0 0 0 0] ------- [0:0 9:0 32 0] [58] 0 0
s 0.626785714 _0_ AGT  --- 475 cbr 500 [0 0 0 0] ------- [0:0 9:0 32 0] [59] 0 0
r 0.626785714 _0_ RTR  --- 475 cbr 500 [0 0 0 0] ------- [0:0 9:0 32 0] [59] 0 0
s 0.635714286 _0_ AGT  --- 477 cbr 500 [0 0 0 0] ------- [0:0 9:0 32 0] [60] 0 0
r 0.635714286 _0_ RTR  --- 477 cbr 500 [0 0 0 0] ------- [0:0 9:0 32 0] [60] 0 0
s 0.644642857 _0_ AGT  --- 479 cbr 500 [0 0 0 0] ------- [0:0 9:0 32 0] [61] 0 0
r 0.644642857 _0_ RTR  --- 479 cbr 500 [0 0 0 0] ------- [0:0 9:0 32 0] [61] 0 0
s 0.653571429 _0_ AGT  --- 543 cbr 500 [0 0 0 0] ------- [0:0 9:0 32 0] [62] 0 0
r 0.653571429 _0_ RTR  --- 543 cbr 500 [0 0 0 0] ------- [0:0 9:0 32 0] [62] 0 0
s 0.662500000 _0_ AGT  --- 545 cbr 500 [0 0 0 0] ------- [0:0 9:0 32 0] [63] 0 0
r 0.662500000 _0_ RTR  --- 545 cbr 500 [0 0 0 0] ------- [0:0 9:0 32 0] [63] 0 0
s 0.671428571 _0_ AGT  --- 547 cbr 500 [0 0 0 0] ------- [0:0 9:0 32 0] [64] 0 0
r 0.671428571 _0_ RTR  --- 547 cbr 500 [0 0 0 0] ------- [0:0 9:0 32 0] [64] 0 0
Ssb 0.67143 _0_ dropped 0 -> 9
D 0.671428571 _0_ RTR TOUT 0 cbr 520 [0 0 0 0] ------- [0:0 9:0 32 0] [0] 0 0
s 0.680357143 _0_ AGT  --- 549 cbr 500 [0 0 0 0] ------- [0:0 9:0 32 0] [65] 0 0
r 0.680357143 _0_ RTR  --- 549 cbr 500 [0 0 0 0] ------- [0:0 9:0 32 0] [65] 0 0
Ssb 0.68036 _0_ dropped 0 -> 9
D 0.680357143 _0_ RTR TOUT 3 cbr 520 [0 0 0 0] ------- [0:0 9:0 32 0] [1] 0 0
s 0.689285714 _0_ AGT  --- 551 cbr 500 [0 0 0 0] ------- [0:0 9:0 32 0] [66] 0 0
r 0.689285714 _0_ RTR  --- 551 cbr 500 [0 0 0 0] ------- [0:0 9:0 32 0] [66] 0 0
Ssb 0.68929 _0_ dropped 0 -> 9
D 0.689285714 _0_ RTR TOUT 5 cbr 520 [0 0 0 0] ------- [0:0 9:0 32 0] [2] 0 0
s 0.698214286 _0_ AGT  --- 553 cbr 500 [0 0 0 0] ------- [0:0 9:0 32 0] [67] 0 0
r 0.698214286 _0_ RTR  --- 553 cbr 500 [0 0 0 0] ------- [0:0 9:0 32 0] [67] 0 0
Ssb 0.69821 _0_ dropped 0 -> 9
D 0.698214286 _0_ RTR TOUT 7 cbr 520 [0 0 0 0] ------- [0:0 9:0 32 0] [3] 0 0
s 0.707142857 _0_ AGT  --- 619 cbr 500 [0 0 0 0] ------- [0:0 9:0 32 0] [68] 0 0
r 0.707142857 _0_ RTR  --- 619 cbr 500 [0 0 0 0] ------- [0:0 9:0 32 0] [68] 0 0
Ssb 0.70714 _0_ dropped 0 -> 9
D 0.707142857 _0_ RTR TOUT 9 cbr 520 [0 0 0 0] ------- [0:0 9:0 32 0] [4] 0 0
s 0.716071429 _0_ AGT  --- 621 cbr 500 [0 0 0 0] ------- [0:0 9:0 32 0] [69] 0 0
r 0.716071429 _0_ RTR  --- 621 cbr 500 [0 0 0 0] ------- [0:0 9:0 32 0] [69] 0 0
Ssb 0.71607 _0_ dropped 0 -> 9
D 0.716071429 _0_ RTR TOUT 11 cbr 520 [0 0 0 0] ------- [0:0 9:0 32 0] [5] 0 0
s 0.725000000 _0_ AGT  --- 623 cbr 500 [0 0 0 0] ------- [0:0 9:0 32 0] [70] 0 0
r 0.725000000 _0_ RTR  --- 623 cbr 500 [0 0 0 0] ------- [0:0 9:0 32 0] [70] 0 0
Ssb 0.72500 _0_ dropped 0 -> 9
D 0.725000000 _0_ RTR TOUT 13 cbr 520 [0 0 0 0] ------- [0:0 9:0 32 0] [6] 0 0
s 0.733928571 _0_ AGT  --- 625 cbr 500 [0 0 0 0] ------- [0:0 9:0 32 0] [71] 0 0
r 0.733928571 _0_ RTR  --- 625 cbr 500 [0 0 0 0] ------- [0:0 9:0 32 0] [71] 0 0
Ssb 0.73393 _0_ dropped 0 -> 9
D 0.733928571 _0_ RTR TOUT 22 cbr 520 [0 0 0 0] ------- [0:0 9:0 32 0] [7] 0 0
s 0.742857143 _0_ AGT  --- 627 cbr 500 [0 0 0 0] ------- [0:0 9:0 32 0] [72] 0 0
r 0.742857143 _0_ RTR  --- 627 cbr 500 [0 0 0 0] ------- [0:0 9:0 32 0] [72] 0 0
Ssb 0.74286 _0_ dropped 0 -> 9
D 0.742857143 _0_ RTR TOUT 24 cbr 520 [0 0 0 0] ------- [0:0 9:0 32 0] [8] 0 0
s 0.751785714 _0_ AGT  --- 629 cbr 500 [0 0 0 0] ------- [0:0 9:0 32 0] [73] 0 0
r 0.751785714 _0_ RTR  --- 629 cbr 500 [0 0 0 0] ------- [0:0 9:0 32 0] [73] 0 0
Ssb 0.75179 _0_ dropped 0 -> 9
D 0.751785714 _0_ RTR TOUT 26 cbr 520 [0 0 0 0] ------- [0:0 9:0 32 0] [9] 0 0
s 0.760714286 _0_ AGT  --- 631 cbr 500 [0 0 0 0] ------- [0:0 9:0 32 0] [74] 0 0
r 0.760714286 _0_ RTR  --- 631 cbr 500 [0 0 0 0] ------- [0:0 9:0 32 0] [74] 0 0
Ssb 0.76071 _0_ dropped 0 -> 9
D 0.760714286 _0_ RTR TOUT 28 cbr 520 [0 0 0 0] ------- [0:0 9:0 32 0] [10] 0 0
s 0.769642857 _0_ AGT  --- 697 cbr 500 [0 0 0 0] ------- [0:0 9:0 32 0] [75] 0 0
r 0.769642857 _0_ RTR  --- 697 cbr 500 [0 0 0 0] ------- [0:0 9:0 32 0] [75] 0 0
Ssb 0.76964 _0_ dropped 0 -> 9
D 0.769642857 _0_ RTR TOUT 30 cbr 520 [0 0 0 0] ------- [0:0 9:0 32 0] [11] 0 0
s 0.778571429 _0_ AGT  --- 699 cbr 500 [0 0 0 0] ------- [0:0 9:0 32 0] [76] 0 0
r 0.778571429 _0_ RTR  --- 699 cbr 500 [0 0 0 0] ------- [0:0 9:0 32 0] [76] 0 0
Ssb 0.77857 _0_ dropped 0 -> 9
D 0.778571429 _0_ RTR TOUT 32 cbr 520 [0 0 0 0] ------- [0:0 9:0 32 0] [12] 0 0
s 0.787500000 _0_ AGT  --- 701 cbr 500 [0 0 0 0] ------- [0:0 9:0 32 0] [77] 0 0
r 0.787500000 _0_ RTR  --- 701 cbr 500 [0 0 0 0] ------- [0:0 9:0 32 0] [77] 0 0
Ssb 0.78750 _0_ dropped 0 -> 9
D 0.787500000 _0_ RTR TOUT 47 cbr 520 [0 0 0 0] ------- [0:0 9:0 32 0] [13] 0 0
s 0.796428571 _0_ AGT  --- 767 cbr 500 [0 0 0 0] ------- [0:0 9:0 32 0] [78] 0 0
r 0.796428571 _0_ RTR  --- 767 cbr 500 [0 0 0 0] ------- [0:0 9:0 32 0] [78] 0 0
Ssb 0.79643 _0_ dropped 0 -> 9
D 0.796428571 _0_ RTR TOUT 49 cbr 520 [0 0 0 0] ------- [0:0 9:0 32 0] [14] 0 0
s 0.805357143 _0_ AGT  --- 769 cbr 500 [0 0 0 0] ------- [0:0 9:0 32 0] [79] 0 0
r 0.805357143 _0_ RTR  --- 769 cbr 500 [0 0 0 0] ------- [0:0 9:0 32 0] [79] 0 0
Ssb 0.80536 _0_ dropped 0 -> 9
D 0.805357143 _0_ RTR TOUT 51 cbr 520 [0 0 0 0] ------- [0:0 9:0 32 0] [15] 0 0
s 0.814285714 _0_ AGT  --- 771 cbr 500 [0 0 0 0] ------- [0:0 9:0 32 0] [80] 0 0
r 0.814285714 _0_ RTR  --- 771 cbr 500 [0 0 0 0] ------- [0:0 9:0 32 0] [80] 0 0
Ssb 0.81429 _0_ dropped 0 -> 9
D 0.814285714 _0_ RTR TOUT 53 cbr 520 [0 0 0 0] ------- [0:0 9:0 32 0] [16] 0 0
s 0.823214286 _0_ AGT  --- 773 cbr 500 [0 0 0 0] ------- [0:0 9:0 32 0] [81] 0 0
r 0.823214286 _0_ RTR  --- 773 cbr 500 [0 0 0 0] ------- [0:0 9:0 32 0] [81] 0 0
Ssb 0.82321 _0_ dropped 0 -> 9
D 0.823214286 _0_ RTR TOUT 55 cbr 520 [0 0 0 0] ------- [0:0 9:0 32 0] [17] 0 0
s 0.832142857 _0_ AGT  --- 839 cbr 500 [0 0 0 0] ------- [0:0 9:0 32 0] [82] 0 0
r 0.832142857 _0_ RTR  --- 839 cbr 500 [0 0 0 0] ------- [0:0 9:0 32 0] [82] 0 0
Ssb 0.83214 _0_ dropped 0 -> 9
D 0.832142857 _0_ RTR TOUT 75 cbr 520 [0 0 0 0] ------- [0:0 9:0 32 0] [18] 0 0
s 0.841071429 _0_ AGT  --- 841 cbr 500 [0 0 0 0] ------- [0:0 9:0 32 0] [83] 0 0
r 0.841071429 _0_ RTR  --- 841 cbr 500 [0 0 0 0] ------- [0:0 9:0 32 0] [83] 0 0
Ssb 0.84107 _0_ dropped 0 -> 9
D 0.841071429 _0_ RTR TOUT 77 cbr 520 [0 0 0 0] ------- [0:0 9:0 32 0] [19] 0 0
s 0.850000000 _0_ AGT  --- 843 cbr 500 [0 0 0 0] ------- [0:0 9:0 32 0] [84] 0 0
r 0.850000000 _0_ RTR  --- 843 cbr 500 [0 0 0 0] ------- [0:0 9:0 32 0] [84] 0 0
Ssb 0.85000 _0_ dropped 0 -> 9
D 0.850000000 _0_ RTR TOUT 79 cbr 520 [0 0 0 0] ------- [0:0 9:0 32 0] [20] 0 0
s 0.858928571 _0_ AGT  --- 845 cbr 500 [0 0 0 0] ------- [0:0 9:0 32 0] [85] 0 0
r 0.858928571 _0_ RTR  --- 845 cbr 500 [0 0 0 0] ------- [0:0 9:0 32 0] [85] 0 0
Ssb 0.85893 _0_ dropped 0 -> 9
D 0.858928571 _0_ RTR TOUT 81 cbr 520 [0 0 0 0] ------- [0:0 9:0 32 0] [21] 0 0
s 0.867857143 _0_ AGT  --- 911 cbr 500 [0 0 0 0] ------- [0:0 9:0 32 0] [86] 0 0
r 0.867857143 _0_ RTR  --- 911 cbr 500 [0 0 0 0] ------- [0:0 9:0 32 0] [86] 0 0
Ssb 0.86786 _0_ dropped 0 -> 9
D 0.867857143 _0_ RTR TOUT 83 cbr 520 [0 0 0 0] ------- [0:0 9:0 32 0] [22] 0 0
s 0.876785714 _0_ AGT  --- 913 cbr 500 [0 0 0 0] ------- [0:0 9:0 32 0] [87] 0 0
r 0.876785714 _0_ RTR  --- 913 cbr 500 [0 0 0 0] ------- [0:0 9:0 32 0] [87] 0 0
Ssb 0.87679 _0_ dropped 0 -> 9
D 0.876785714 _0_ RTR TOUT 108 cbr 520 [0 0 0 0] ------- [0:0 9:0 32 0] [23] 0 0
s 0.885714286 _0_ AGT  --- 915 cbr 500 [0 0 0 0] ------- [0:0 9:0 32 0] [88] 0 0
r 0.885714286 _0_ RTR  --- 915 cbr 500 [0 0 0 0] ------- [0:0 9:0 32 0] [88] 0 0
Ssb 0.88571 _0_ dropped 0 -> 9
D 0.885714286 _0_ RTR TOUT 110 cbr 520 [0 0 0 0] ------- [0:0 9:0 32 0] [24] 0 0
s 0.894642857 _0_ AGT  --- 917 cbr 500 [0 0 0 0] ------- [0:0 9:0 32 0] [89] 0 0
r 0.894642857 _0_ RTR  --- 917 cbr 500 [0 0 0 0] ------- [0:0 9:0 32 0] [89] 0 0
Ssb 0.89464 _0_ dropped 0 -> 9
D 0.894642857 _0_ RTR TOUT 112 cbr 520 [0 0 0 0] ------- [0:0 9:0 32 0] [25] 0 0
s 0.903571429 _0_ AGT  --- 983 cbr 500 [0 0 0 0] ------- [0:0 9:0 32 0] [90] 0 0
r 0.903571429 _0_ RTR  --- 983 cbr 500 [0 0 0 0] ------- [0:0 9:0 32 0] [90] 0 0
Ssb 0.90357 _0_ dropped 0 -> 9
D 0.903571429 _0_ RTR TOUT 114 cbr 520 [0 0 0 0] ------- [0:0 9:0 32 0] [26] 0 0
s 0.912500000 _0_ AGT  --- 985 cbr 500 [0 0 0 0] ------- [0:0 9:0 32 0] [91] 0 0
r 0.912500000 _0_ RTR  --- 985 cbr 500 [0 0 0 0] ------- [0:0 9:0 32 0] [91] 0 0
Ssb 0.91250 _0_ dropped 0 -> 9
D 0.912500000 _0_ RTR TOUT 116 cbr 520 [0 0 0 0] ------- [0:0 9:0 32 0] [27] 0 0
s 0.921428571 _0_ AGT  --- 987 cbr 500 [0 0 0 0] ------- [0:0 9:0 32 0] [92] 0 0
r 0.921428571 _0_ RTR  --- 987 cbr 500 [0 0 0 0] ------- [0:0 9:0 32 0] [92] 0 0
Ssb 0.92143 _0_ dropped 0 -> 9
D 0.921428571 _0_ RTR TOUT 146 cbr 520 [0 0 0 0] ------- [0:0 9:0 32 0] [28] 0 0
s 0.930357143 _0_ AGT  --- 989 cbr 500 [0 0 0 0] ------- [0:0 9:0 32 0] [93] 0 0
r 0.930357143 _0_ RTR  --- 989 cbr 500 [0 0 0 0] ------- [0:0 9:0 32 0] [93] 0 0
Ssb 0.93036 _0_ dropped 0 -> 9
D 0.930357143 _0_ RTR TOUT 148 cbr 520 [0 0 0 0] ------- [0:0 9:0 32 0] [29] 0 0
s 0.939285714 _0_ AGT  --- 991 cbr 500 [0 0 0 0] ------- [0:0 9:0 32 0] [94] 0 0
r 0.939285714 _0_ RTR  --- 991 cbr 500 [0 0 0 0] ------- [0:0 9:0 32 0] [94] 0 0
Ssb 0.93929 _0_ dropped 0 -> 9
D 0.939285714 _0_ RTR TOUT 150 cbr 520 [0 0 0 0] ------- [0:0 9:0 32 0] [30] 0 0
s 0.948214286 _0_ AGT  --- 993 cbr 500 [0 0 0 0] ------- [0:0 9:0 32 0] [95] 0 0
r 0.948214286 _0_ RTR  --- 993 cbr 500 [0 0 0 0] ------- [0:0 9:0 32 0] [95] 0 0
Ssb 0.94821 _0_ dropped 0 -> 9
D 0.948214286 _0_ RTR TOUT 152 cbr 520 [0 0 0 0] ------- [0:0 9:0 32 0] [31] 0 0
s 0.957142857 _0_ AGT  --- 1059 cbr 500 [0 0 0 0] ------- [0:0 9:0 32 0] [96] 0 0
r 0.957142857 _0_ RTR  --- 1059 cbr 500 [0 0 0 0] ------- [0:0 9:0 32 0] [96] 0 0
Ssb 0.95714 _0_ dropped 0 -> 9
D 0.957142857 _0_ RTR TOUT 154 cbr 520 [0 0 0 0] ------- [0:0 9:0 32 0] [32] 0 0
s 0.966071429 _0_ AGT  --- 1061 cbr 500 [0 0 0 0] ------- [0:0 9:0 32 0] [97] 0 0
r 0.966071429 _0_ RTR  --- 1061 cbr 500 [0 0 0 0] ------- [0:0 9:0 32 0] [97] 0 0
Ssb 0.96607 _0_ dropped 0 -> 9
D 0.966071429 _0_ RTR TOUT 156 cbr 520 [0 0 0 0] ------- [0:0 9:0 32 0] [33] 0 0
s 0.975000000 _0_ AGT  --- 1063 cbr 500 [0 0 0 0] ------- [0:0 9:0 32 0] [98] 0 0
r 0.975000000 _0_ RTR  --- 1063 cbr 500 [0 0 0 0] ------- [0:0 9:0 32 0] [98] 0 0
Ssb 0.97500 _0_ dropped 0 -> 9
D 0.975000000 _0_ RTR TOUT 192 cbr 520 [0 0 0 0] ------- [0:0 9:0 32 0] [34] 0 0
s 0.983928571 _0_ AGT  --- 1065 cbr 500 [0 0 0 0] ------- [0:0 9:0 32 0] [99] 0 0
r 0.983928571 _0_ RTR  --- 1065 cbr 500 [0 0 0 0] ------- [0:0 9:0 32 0] [99] 0 0
Ssb 0.98393 _0_ dropped 0 -> 9
D 0.983928571 _0_ RTR TOUT 194 cbr 520 [0 0 0 0] ------- [0:0 9:0 32 0] [35] 0 0
s 0.992857143 _0_ AGT  --- 1067 cbr 500 [0 0 0 0] ------- [0:0 9:0 32 0] [100] 0 0
r 0.992857143 _0_ RTR  --- 1067 cbr 500 [0 0 0 0] ------- [0:0 9:0 32 0] [100] 0 0
Ssb 0.99286 _0_ dropped 0 -> 9
D 0.992857143 _0_ RTR TOUT 196 cbr 520 [0 0 0 0] ------- [0:0 9:0 32 0] [36] 0 0
M 1.00000 2 (250.00, 250.00, 0.00), (759.00, 789.00), 250.00
s 1.001785714 _0_ AGT  --- 1133 cbr 500 [0 0 0 0] ------- [0:0 9:0 32 0] [101] 0 0
r 1.001785714 _0_ RTR  --- 1133 cbr 500 [0 0 0 0] ------- [0:0 9:0 32 0] [101] 0 0
Ssb 1.00179 _0_ dropped 0 -> 9
D 1.001785714 _0_ RTR TOUT 235 cbr 520 [0 0 0 0] ------- [0:0 9:0 32 0] [37] 0 0
s 1.010714286 _0_ AGT  --- 1135 cbr 500 [0 0 0 0] ------- [0:0 9:0 32 0] [102] 0 0
r 1.010714286 _0_ RTR  --- 1135 cbr 500 [0 0 0 0] ------- [0:0 9:0 32 0] [102] 0 0
Ssb 1.01071 _0_ dropped 0 -> 9
D 1.010714286 _0_ RTR TOUT 237 cbr 520 [0 0 0 0] ------- [0:0 9:0 32 0] [38] 0 0
s 1.019642857 _0_ AGT  --- 1137 cbr 500 [0 0 0 0] ------- [0:0 9:0 32 0] [103] 0 0
r 1.019642857 _0_ RTR  --- 1137 cbr 500 [0 0 0 0] ------- [0:0 9:0 32 0] [103] 0 0
Ssb 1.01964 _0_ dropped 0 -> 9
D 1.019642857 _0_ RTR TOUT 239 cbr 520 [0 0 0 0] ------- [0:0 9:0 32 0] [39] 0 0
s 1.028571429 _0_ AGT  --- 1139 cbr 500 [0 0 0 0] ------- [0:0 9:0 32 0] [104] 0 0
r 1.028571429 _0_ RTR  --- 1139 cbr 500 [0 0 0 0] ------- [0:0 9:0 32 0] [104] 0 0
Ssb 1.02857 _0_ dropped 0 -> 9
D 1.028571429 _0_ RTR TOUT 241 cbr 520 [0 0 0 0] ------- [0:0 9:0 32 0] [40] 0 0
s 1.037500000 _0_ AGT  --- 1141 cbr 500 [0 0 0 0] ------- [0:0 9:0 32 0] [105] 0 0
r 1.037500000 _0_ RTR  --- 1141 cbr 500 [0 0 0 0] ------- [0:0 9:0 32 0] [105] 0 0
Ssb 1.03750 _0_ dropped 0 -> 9
D 1.037500000 _0_ RTR TOUT 243 cbr 520 [0 0 0 0] ------- [0:0 9:0 32 0] [41] 0 0
s 1.046428571 _0_ AGT  --- 1143 cbr 500 [0 0 0 0] ------- [0:0 9:0 32 0] [106] 0 0
r 1.046428571 _0_ RTR  --- 1143 cbr 500 [0 0 0 0] ------- [0:0 9:0 32 0] [106] 0 0
Ssb 1.04643 _0_ dropped 0 -> 9
D 1.046428571 _0_ RTR TOUT 287 cbr 520 [0 0 0 0] ------- [0:0 9:0 32 0] [42] 0 0
s 1.055357143 _0_ AGT  --- 1145 cbr 500 [0 0 0 0] ------- [0:0 9:0 32 0] [107] 0 0
r 1.055357143 _0_ RTR  --- 1145 cbr 500 [0 0 0 0] ------- [0:0 9:0 32 0] [107] 0 0
Ssb 1.05536 _0_ dropped 0 -> 9
D 1.055357143 _0_ RTR TOUT 289 cbr 520 [0 0 0 0] ------- [0:0 9:0 32 0] [43] 0 0
s 1.064285714 _0_ AGT  --- 1211 cbr 500 [0 0 0 0] ------- [0:0 9:0 32 0] [108] 0 0
r 1.064285714 _0_ RTR  --- 1211 cbr 500 [0 0 0 0] ------- [0:0 9:0 32 0] [108] 0 0
Ssb 1.06429 _0_ dropped 0 -> 9
D 1.064285714 _0_ RTR TOUT 291 cbr 520 [0 0 0 0] ------- [0:0 9:0 32 0] [44] 0 0
s 1.073214286 _0_ AGT  --- 1213 cbr 500 [0 0 0 0] ------- [0:0 9:0 32 0] [109] 0 0
r 1.073214286 _0_ RTR  --- 1213 cbr 500 [0 0 0 0] ------- [0:0 9:0 32 0] [109] 0 0
Ssb 1.07321 _0_ dropped 0 -> 9
D 1.073214286 _0_ RTR TOUT 293 cbr 520 [0 0 0 0] ------- [0:0 9:0 32 0] [45] 0 0
s 1.082142857 _0_ AGT  --- 1215 cbr 500 [0 0 0 0] ------- [0:0 9:0 32 0] [110] 0 0
r 1.082142857 _0_ RTR  --- 1215 cbr 500 [0 0 0 0] ------- [0:0 9:0 32 0] [110] 0 0
Ssb 1.08214 _0_ dropped 0 -> 9
D 1.082142857 _0_ RTR TOUT 341 cbr 520 [0 0 0 0] ------- [0:0 9:0 32 0] [46] 0 0
s 1.091071429 _0_ AGT  --- 1217 cbr 500 [0 0 0 0] ------- [0:0 9:0 32 0] [111] 0 0
r 1.091071429 _0_ RTR  --- 1217 cbr 500 [0 0 0 0] ------- [0:0 9:0 32 0] [111] 0 0
Ssb 1.09107 _0_ dropped 0 -> 9
D 1.091071429 _0_ RTR TOUT 343 cbr 520 [0 0 0 0] ------- [0:0 9:0 32 0] [47] 0 0
s 1.100000000 _0_ AGT  --- 1283 cbr 500 [0 0 0 0] ------- [0:0 9:0 32 0] [112] 0 0
r 1.100000000 _0_ RTR  --- 1283 cbr 500 [0 0 0 0] ------- [0:0 9:0 32 0] [112] 0 0
Ssb 1.10000 _0_ dropped 0 -> 9
D 1.100000000 _0_ RTR TOUT 345 cbr 520 [0 0 0 0] ------- [0:0 9:0 32 0] [48] 0 0
s 1.108928571 _0_ AGT  --- 1285 cbr 500 [0 0 0 0] ------- [0:0 9:0 32 0] [113] 0 0
r 1.108928571 _0_ RTR  --- 1285 cbr 500 [0 0 0 0] ------- [0:0 9:0 32 0] [113] 0 0
Ssb 1.10893 _0_ dropped 0 -> 9
D 1.108928571 _0_ RTR TOUT 347 cbr 520 [0 0 0 0] ------- [0:0 9:0 32 0] [49] 0 0
s 1.117857143 _0_ AGT  --- 1287 cbr 500 [0 0 0 0] ------- [0:0 9:0 32 0] [114] 0 0
r 1.117857143 _0_ RTR  --- 1287 cbr 500 [0 0 0 0] ------- [0:0 9:0 32 0] [114] 0 0
Ssb 1.11786 _0_ dropped 0 -> 9
D 1.117857143 _0_ RTR TOUT 349 cbr 520 [0 0 0 0] ------- [0:0 9:0 32 0] [50] 0 0
s 1.126785714 _0_ AGT  --- 1289 cbr 500 [0 0 0 0] ------- [0:0 9:0 32 0] [115] 0 0
r 1.126785714 _0_ RTR  --- 1289 cbr 500 [0 0 0 0] ------- [0:0 9:0 32 0] [115] 0 0
Ssb 1.12679 _0_ dropped 0 -> 9
D 1.126785714 _0_ RTR TOUT 351 cbr 520 [0 0 0 0] ------- [0:0 9:0 32 0] [51] 0 0
s 1.135714286 _0_ AGT  --- 1291 cbr 500 [0 0 0 0] ------- [0:0 9:0 32 0] [116] 0 0
r 1.135714286 _0_ RTR  --- 1291 cbr 500 [0 0 0 0] ------- [0:0 9:0 32 0] [116] 0 0
Ssb 1.13571 _0_ dropped 0 -> 9
D 1.135714286 _0_ RTR TOUT 405 cbr 520 [0 0 0 0] ------- [0:0 9:0 32 0] [52] 0 0
s 1.144642857 _0_ AGT  --- 1357 cbr 500 [0 0 0 0] ------- [0:0 9:0 32 0] [117] 0 0
r 1.144642857 _0_ RTR  --- 1357 cbr 500 [0 0 0 0] ------- [0:0 9:0 32 0] [117] 0 0
Ssb 1.14464 _0_ dropped 0 -> 9
D 1.144642857 _0_ RTR TOUT 407 cbr 520 [0 0 0 0] ------- [0:0 9:0 32 0] [53] 0 0
s 1.153571429 _0_ AGT  --- 1359 cbr 500 [0 0 0 0] ------- [0:0 9:0 32 0] [118] 0 0
r 1.153571429 _0_ RTR  --- 1359 cbr 500 [0 0 0 0] ------- [0:0 9:0 32 0] [118] 0 0
Ssb 1.15357 _0_ dropped 0 -> 9
D 1.153571429 _0_ RTR TOUT 409 cbr 520 [0 0 0 0] ------- [0:0 9:0 32 0] [54] 0 0
s 1.162500000 _0_ AGT  --- 1361 cbr 500 [0 0 0 0] ------- [0:0 9:0 32 0] [119] 0 0
r 1.162500000 _0_ RTR  --- 1361 cbr 500 [0 0 0 0] ------- [0:0 9:0 32 0] [119] 0 0
Ssb 1.16250 _0_ dropped 0 -> 9
D 1.162500000 _0_ RTR TOUT 411 cbr 520 [0 0 0 0] ------- [0:0 9:0 32 0] [55] 0 0
s 1.171428571 _0_ AGT  --- 1363 cbr 500 [0 0 0 0] ------- [0:0 9:0 32 0] [120] 0 0
r 1.171428571 _0_ RTR  --- 1363 cbr 500 [0 0 0 0] ------- [0:0 9:0 32 0] [120] 0 0
Ssb 1.17143 _0_ dropped 0 -> 9
D 1.171428571 _0_ RTR TOUT 469 cbr 520 [0 0 0 0] ------- [0:0 9:0 32 0] [56] 0 0
s 1.180357143 _0_ AGT  --- 1429 cbr 500 [0 0 0 0] ------- [0:0 9:0 32 0] [121] 0 0